
    -----------------------------------------------------------------------
          Psi4: An Open-Source Ab Initio Electronic Structure Package
                               Psi4 1.3.2 release

                         Git: Rev {HEAD} ecbda83 


    R. M. Parrish, L. A. Burns, D. G. A. Smith, A. C. Simmonett,
    A. E. DePrince III, E. G. Hohenstein, U. Bozkaya, A. Yu. Sokolov,
    R. Di Remigio, R. M. Richard, J. F. Gonthier, A. M. James,
    H. R. McAlexander, A. Kumar, M. Saitow, X. Wang, B. P. Pritchard,
    P. Verma, H. F. Schaefer III, K. Patkowski, R. A. King, E. F. Valeev,
    F. A. Evangelista, J. M. Turney, T. D. Crawford, and C. D. Sherrill,
    J. Chem. Theory Comput. 13(7) pp 3185--3197 (2017).
    (doi: 10.1021/acs.jctc.7b00174)


                         Additional Contributions by
    P. Kraus, H. Kruse, M. H. Lechner, M. C. Schieber, R. A. Shaw,
    A. Alenaizan, R. Galvelis, Z. L. Glick, S. Lehtola, and J. P. Misiewicz

    -----------------------------------------------------------------------


    Psi4 started on: Saturday, 23 January 2021 09:23PM

    Process ID: 42430
    Host:       Rubens-MacBook-Pro-2.local
    PSIDATADIR: /opt/anaconda3/envs/p4env/share/psi4
    Memory:     500.0 MiB
    Threads:    8
    
  ==> Input File <==

--------------------------------------------------------------------------
memory 8gb
molecule {
    symmetry c1 # this is important; some perturbations will break symmetry
#    no_reorient
N         0.30010934722077   -1.08909228609414   -0.77538587070912
C         0.39809668176576   -1.10111982598521    0.55046392252805
N         0.25340875631654    1.25588544041294   -0.66600248773838
C         0.17197112844681    0.17978721522183   -2.80220237621829
H         0.63740508983203   -1.78162612255957   -5.51041503235503
C         0.36799395842296    1.15061832287346    0.65462764111592
C         0.44936248439494   -2.40059047159736    1.22053274956984
H        -0.12245404497335   -3.48990315852234   -0.52526657454533
C         0.24294138646578    0.11192357185343   -1.34270122551716
N         0.45244036274910   -0.00699179082606    1.30376015744378
C         0.53477572349875   -4.87004971114732    2.50407730179839
C         0.39877918146425    2.38478552407498    1.43923032427150
H        -0.84753689999537    6.85195752693376    2.41046278058315
C         0.43000515201520   -0.95682041721467   -3.56594982403780
C         0.05029060197657    0.47382853203821   -7.06352299032470
C        -0.12409306898102    1.38464006076532   -3.43764585925807
C        -0.21640665031764   -0.68886671274487  -10.30923680591266
C         0.38963910800664   -0.89444376571769   -4.94415923003425
C         0.08046395880189    0.30604377923192   -5.58260810758546
C        -0.16741276724675    1.44323949771994   -4.81362580334182
C        -0.22609567409238   -0.72338317735245   -9.10259736098191
H        -0.38660242333386    2.36769522619508   -5.32646936827313
C         0.49224015048435    3.50215200273422    3.56231905716415
C         0.47400992949923    2.33402745305518    2.83046289960279
H         0.67602808831131   -1.87772685681472   -3.06069125625432
C         0.35991519000291    3.62058700385785    0.79544854552846
H         0.51648566845400    1.37178627466412    3.31535402467003
H         0.32812328553213    3.64413453383814   -0.28236999180663
C         0.36569311873200    4.78836073674383    1.53038124636712
H         1.17980443904448   -3.74301175534943    4.23153816867947
C         0.42545081990894    5.96025183284436    3.77694610412110
C         0.41766162520415    4.73832773226059    2.92263852299846
H         0.55875838767453    3.48422200244667    4.63973261351650
C         0.14711842765592   -3.56514404723225    0.51632691773629
C         0.80995569801808   -2.48172164376057    2.56400322301124
H         1.06102999974810   -1.57459684273802    3.09094401300772
C         0.85700751738850   -3.70563585164028    3.20021149813383
C         0.19195886866678   -4.78559797114992    1.15468302825400
H        -0.03413062929488   -5.70010347483994    0.62720845809634
C         0.57753342803288   -6.23272485554939    3.10721978346899
N         0.38462243705694   -6.25763492891439    4.46732243547408
O         0.75446557412998   -7.23783182434131    2.45352068904595
C         0.45877922664204   -8.44036460307159    5.77423494511722
C        -2.42146442427703   12.24583414894292    4.42384643355952
C         0.41123935299162   -7.38853918290529    5.18381917457050
H        -0.31135278382811  -10.07124049709882   12.21495161979955
H        -0.31468110200736    2.25927821895094   -2.83630874117023
H         0.36435250473334    5.73699872820537    1.01128031666518
C         0.51520149696874   -9.64313818210389    6.48619566006539
H        -1.23543574069262   -5.37626083582205  -14.97091867364659
C         0.52161780589797   -9.71385907853191    7.80309384845852
C        -3.25484720739180   13.14426268505347    4.07612776537171
C         0.53607046555366   -9.79777287858857    9.06432520643007
C         0.56285788051628   -9.88992273379591   10.33448615243845
C        -0.29517291051540   -3.87150195158473  -13.88229461854123
O         0.22475362922611    1.54270915609376   -7.60791550513623
C        -0.27710127983985   -2.82595239310329  -13.15497767500343
O         1.01144640177909    6.03221019528179    4.83417561268523
N        -0.32087212404381    6.99327472249740    3.26193388592694
H         0.17759444652455   -5.40258787841455    4.96473652501546
C        -0.47562637680106    8.16934846840469    3.88309747703563
N        -0.20091220400652   -0.68068655911094   -7.76451975349111
C        -0.58188713465325    9.21054519776502    4.48464807216880
C        -0.24686742994604   -1.78378157092829  -12.44028452087846
C        -0.20520283758192   -0.68779135591523  -11.70794052285017
C        -0.73559899299357   10.42975037522137    5.15321365344489
H        -0.40501592262128   -1.53922336482007   -7.27209562043697
C        -1.59536367437055   11.35716810521158    4.77850567276404
H        -0.10350931410555   10.58604423397099    6.01977982208280
C         0.59224718185370   -9.98422271820031   11.63168297443853
H        -0.15131988463736    0.28500832295746  -12.18365611604646
C        -0.31137753796049   -4.93914611081047  -14.62545287137469
H         0.59995375773354   -5.43212638119150  -14.92708514888230
H         1.52271139633982   -9.97978213785412   12.17830257489252
C        -4.10764002815240   14.05991923907170    3.72014765843474
H        -3.84307999810863   14.84175146662270    3.02510949670160
H        -5.11543005776530   14.07558033419141    4.10564141316522
H         0.56087608790743  -10.54836667384373    5.89113443491940

}

set {
    basis     6-31g
    d_convergence   10
    reference rhf
    scf_type direct
}

method = 'B3LYP'
E, wfn = energy(method, return_wfn=True)
molden(wfn, 'HS_13.molden')

--------------------------------------------------------------------------

  Memory set to   7.451 GiB by Python driver.

*** tstart() called on Rubens-MacBook-Pro-2.local
*** at Sat Jan 23 21:23:41 2021

   => Loading Basis Set <=

    Name: 6-31G
    Role: ORBITAL
    Keyword: BASIS
    atoms 1, 3, 10, 41, 59, 62                                                                                                entry N          line   102 file /opt/anaconda3/envs/p4env/share/psi4/basis/6-31g.gbs 
    atoms 2, 4, 6-7, 9, 11-12, 14-21, 23-24, 26, 29, 31-32, 34-35, 37-38, 40, 43-45, 49, 51-55, 57, 61, 63-66, 68, 70, 72, 75 entry C          line    87 file /opt/anaconda3/envs/p4env/share/psi4/basis/6-31g.gbs 
    atoms 5, 8, 13, 22, 25, 27-28, 30, 33, 36, 39, 46-48, 50, 60, 67, 69, 71, 73-74, 76-78                                    entry H          line    26 file /opt/anaconda3/envs/p4env/share/psi4/basis/6-31g.gbs 
    atoms 42, 56, 58                                                                                                          entry O          line   117 file /opt/anaconda3/envs/p4env/share/psi4/basis/6-31g.gbs 


         ---------------------------------------------------------
                                   SCF
               by Justin Turney, Rob Parrish, Andy Simmonett
                          and Daniel G. A. Smith
                              RKS Reference
                        8 Threads,   7629 MiB Core
         ---------------------------------------------------------

  ==> Geometry <==

    Molecular point group: c1
    Full point group: C1

    Geometry (in Angstrom), charge = 0, multiplicity = 1:

       Center              X                  Y                   Z               Mass       
    ------------   -----------------  -----------------  -----------------  -----------------
         N            0.295589209897    -1.093198365118    -0.771817999797    14.003074004430
         C            0.393576544442    -1.105225905009     0.554031793441    12.000000000000
         N            0.248888618993     1.251779361389    -0.662434616826    14.003074004430
         C            0.167450991123     0.175681136198    -2.798634505306    12.000000000000
         H            0.632884952508    -1.785732201583    -5.506847161442     1.007825032230
         C            0.363473821099     1.146512243850     0.658195512029    12.000000000000
         C            0.444842347071    -2.404696550621     1.224100620482    12.000000000000
         H           -0.126974182297    -3.494009237546    -0.521698703633     1.007825032230
         C            0.238421249142     0.107817492830    -1.339133354605    12.000000000000
         N            0.447920225425    -0.011097869850     1.307328028356    14.003074004430
         C            0.530255586175    -4.874155790171     2.507645172711    12.000000000000
         C            0.394259044140     2.380679445051     1.442798195184    12.000000000000
         H           -0.852057037319     6.847851447910     2.414030651496     1.007825032230
         C            0.425485014691    -0.960926496238    -3.562381953125    12.000000000000
         C            0.045770464653     0.469722453014    -7.059955119412    12.000000000000
         C           -0.128613206305     1.380533981742    -3.434077988345    12.000000000000
         C           -0.220926787642    -0.692972791769   -10.305668935000    12.000000000000
         C            0.385118970683    -0.898549844741    -4.940591359122    12.000000000000
         C            0.075943821478     0.301937700208    -5.579040236673    12.000000000000
         C           -0.171932904571     1.439133418696    -4.810057932429    12.000000000000
         C           -0.230615811416    -0.727489256376    -9.099029490069    12.000000000000
         H           -0.391122560658     2.363589147171    -5.322901497361     1.007825032230
         C            0.487720013160     3.498045923710     3.565886928077    12.000000000000
         C            0.469489792175     2.329921374031     2.834030770515    12.000000000000
         H            0.671507950987    -1.881832935838    -3.057123385342     1.007825032230
         C            0.355395052679     3.616480924834     0.799016416441    12.000000000000
         H            0.511965531130     1.367680195640     3.318921895583     1.007825032230
         H            0.323603148208     3.640028454814    -0.278802120894     1.007825032230
         C            0.361172981408     4.784254657720     1.533949117280    12.000000000000
         H            1.175284301721    -3.747117834373     4.235106039592     1.007825032230
         C            0.420930682585     5.956145753821     3.780513975034    12.000000000000
         C            0.413141487880     4.734221653237     2.926206393911    12.000000000000
         H            0.554238250351     3.480115923423     4.643300484429     1.007825032230
         C            0.142598290332    -3.569250126256     0.519894788649    12.000000000000
         C            0.805435560694    -2.485827722784     2.567571093924    12.000000000000
         H            1.056509862424    -1.578702921762     3.094511883920     1.007825032230
         C            0.852487380065    -3.709741930664     3.203779369046    12.000000000000
         C            0.187438731343    -4.789704050174     1.158250899167    12.000000000000
         H           -0.038650766619    -5.704209553864     0.630776329009     1.007825032230
         C            0.573013290709    -6.236830934573     3.110787654382    12.000000000000
         N            0.380102299733    -6.261741007938     4.470890306387    14.003074004430
         O            0.749945436806    -7.241937903365     2.457088559959    15.994914619570
         C            0.454259089318    -8.444470682095     5.777802816030    12.000000000000
         C           -2.425984561601    12.241728069919     4.427414304472    12.000000000000
         C            0.406719215668    -7.392645261929     5.187387045483    12.000000000000
         H           -0.315872921152   -10.075346576123    12.218519490712     1.007825032230
         H           -0.319201239331     2.255172139927    -2.832740870258     1.007825032230
         H            0.359832367409     5.732892649182     1.014848187578     1.007825032230
         C            0.510681359645    -9.647244261128     6.489763530978    12.000000000000
         H           -1.239955878017    -5.380366914846   -14.967350802734     1.007825032230
         C            0.517097668574    -9.717965157556     7.806661719371    12.000000000000
         C           -3.259367344716    13.140156606030     4.079695636284    12.000000000000
         C            0.531550328230    -9.801878957612     9.067893077343    12.000000000000
         C            0.558337743192    -9.894028812820    10.338054023351    12.000000000000
         C           -0.299693047839    -3.875608030608   -13.878726747629    12.000000000000
         O            0.220233491902     1.538603077070    -7.604347634224    15.994914619570
         C           -0.281621417164    -2.830058472127   -13.151409804091    12.000000000000
         O            1.006926264455     6.028104116258     4.837743483598    15.994914619570
         N           -0.325392261368     6.989168643474     3.265501756840    14.003074004430
         H            0.173074309201    -5.406693957438     4.968304395928     1.007825032230
         C           -0.480146514125     8.165242389381     3.886665347948    12.000000000000
         N           -0.205432341330    -0.684792638135    -7.760951882578    14.003074004430
         C           -0.586407271977     9.206439118741     4.488215943081    12.000000000000
         C           -0.251387567270    -1.787887649952   -12.436716649966    12.000000000000
         C           -0.209722974906    -0.691897434939   -11.704372651938    12.000000000000
         C           -0.740119130318    10.425644296198     5.156781524358    12.000000000000
         H           -0.409536059945    -1.543329443844    -7.268527749524     1.007825032230
         C           -1.599883811695    11.353062026188     4.782073543677    12.000000000000
         H           -0.108029451430    10.581938154947     6.023347692995     1.007825032230
         C            0.587727044530    -9.988328797224    11.635250845351    12.000000000000
         H           -0.155840021961     0.280902243934   -12.180088245134     1.007825032230
         C           -0.315897675284    -4.943252189834   -14.621885000462    12.000000000000
         H            0.595433620410    -5.436232460215   -14.923517277970     1.007825032230
         H            1.518191259016    -9.983888216878    12.181870445805     1.007825032230
         C           -4.112160165476    14.055813160048     3.723715529347    12.000000000000
         H           -3.847600135433    14.837645387599     3.028677367614     1.007825032230
         H           -5.119950195089    14.071474255168     4.109209284078     1.007825032230
         H            0.556355950583   -10.552472752867     5.894702305832     1.007825032230

  Running in c1 symmetry.

  Rotational constants: A =      0.00064  B =      0.00061  C =      0.00032 [cm^-1]
  Rotational constants: A =     19.24123  B =     18.39895  C =      9.52750 [MHz]
  Nuclear repulsion = 5091.487132764042144

  Charge       = 0
  Multiplicity = 1
  Electrons    = 360
  Nalpha       = 180
  Nbeta        = 180

  ==> Algorithm <==

  SCF Algorithm Type is DIRECT.
  DIIS enabled.
  MOM disabled.
  Fractional occupation disabled.
  Guess Type is SAD.
  Energy threshold   = 1.00e-06
  Density threshold  = 1.00e-10
  Integral threshold = 0.00e+00

  ==> Primary Basis <==

  Basis Set: 6-31G
    Blend: 6-31G
    Number of shells: 318
    Number of basis function: 534
    Number of Cartesian functions: 534
    Spherical Harmonics?: false
    Max angular momentum: 1

  ==> DFT Potential <==

   => Composite Functional: B3LYP <= 

    B3LYP Hyb-GGA Exchange-Correlation Functional

    P. J. Stephens, F. J. Devlin, C. F. Chabalowski, and M. J. Frisch, J. Phys. Chem. 98, 11623 (1994)

    Deriv               =              1
    GGA                 =           TRUE
    Meta                =          FALSE

    Exchange Hybrid     =           TRUE
    MP2 Hybrid          =          FALSE

   => Exchange Functionals <=

    0.0800   Slater exchange
    0.7200         Becke 88

   => Exact (HF) Exchange <=

    0.2000               HF 

   => Correlation Functionals <=

    0.1900   Vosko, Wilk & Nusair (VWN5_RPA)
    0.8100   Lee, Yang & Parr

   => Molecular Quadrature <=

    Radial Scheme          =       TREUTLER
    Pruning Scheme         =           FLAT
    Nuclear Scheme         =       TREUTLER

    BS radius alpha        =              1
    Pruning alpha          =              1
    Radial Points          =             75
    Spherical Points       =            302
    Total Points           =        1723380
    Total Blocks           =          12760
    Max Points             =            256
    Max Functions          =            204

   => Loading Basis Set <=

    Name: (6-31G AUX)
    Role: JKFIT
    Keyword: DF_BASIS_SCF
    atoms 1, 3, 10, 41, 59, 62                                                                                                entry N          line   171 file /opt/anaconda3/envs/p4env/share/psi4/basis/cc-pvdz-jkfit.gbs 
    atoms 2, 4, 6-7, 9, 11-12, 14-21, 23-24, 26, 29, 31-32, 34-35, 37-38, 40, 43-45, 49, 51-55, 57, 61, 63-66, 68, 70, 72, 75 entry C          line   121 file /opt/anaconda3/envs/p4env/share/psi4/basis/cc-pvdz-jkfit.gbs 
    atoms 5, 8, 13, 22, 25, 27-28, 30, 33, 36, 39, 46-48, 50, 60, 67, 69, 71, 73-74, 76-78                                    entry H          line    51 file /opt/anaconda3/envs/p4env/share/psi4/basis/cc-pvdz-jkfit.gbs 
    atoms 42, 56, 58                                                                                                          entry O          line   221 file /opt/anaconda3/envs/p4env/share/psi4/basis/cc-pvdz-jkfit.gbs 

  Starting with a DF guess...

  ==> Pre-Iterations <==

   -------------------------------------------------------
    Irrep   Nso     Nmo     Nalpha   Nbeta   Ndocc  Nsocc
   -------------------------------------------------------
     A        534     534       0       0       0       0
   -------------------------------------------------------
    Total     534     534     180     180     180       0
   -------------------------------------------------------

  ==> Integral Setup <==

  DFHelper Memory: AOs need 3.628 GiB; user supplied 3.628 GiB. Using in-core AOs.

  ==> MemDFJK: Density-Fitted J/K Matrices <==

    J tasked:                   Yes
    K tasked:                   Yes
    wK tasked:                   No
    OpenMP threads:               8
    Memory [MiB]:              3714
    Algorithm:                 Disk
    Schwarz Cutoff:           1E-12
    Mask sparsity (%):      68.1781
    Fitting Condition:        1E-10

   => Auxiliary Basis Set <=

  Basis Set: (6-31G AUX)
    Blend: CC-PVDZ-JKFIT
    Number of shells: 1512
    Number of basis function: 4974
    Number of Cartesian functions: 4974
    Spherical Harmonics?: false
    Max angular momentum: 3

  Cached 50.0% of DFT collocation blocks in 2.717 [GiB].

  Minimum eigenvalue in the overlap matrix is 6.4247388198E-05.
  Using Symmetric Orthogonalization.

  SCF Guess: Superposition of Atomic Densities via on-the-fly atomic UHF.

  ==> Iterations <==

                           Total Energy        Delta E     RMS |[F,P]|

   @DF-RKS iter SAD: -2280.97147577079522   -2.28097e+03   0.00000e+00 
   @DF-RKS iter   1: -2280.23754213448410    7.33934e-01   3.65847e-03 DIIS
   @DF-RKS iter   2: -2279.55108817013888    6.86454e-01   4.55083e-03 DIIS
   @DF-RKS iter   3: -2281.89759849804250   -2.34651e+00   1.74233e-03 DIIS
   @DF-RKS iter   4: -2282.27831366649298   -3.80715e-01   3.57844e-04 DIIS
   @DF-RKS iter   5: -2282.29040082966321   -1.20872e-02   1.92817e-04 DIIS
   @DF-RKS iter   6: -2282.29504145018473   -4.64062e-03   8.86241e-05 DIIS
   @DF-RKS iter   7: -2282.29628151198358   -1.24006e-03   1.61140e-05 DIIS
   @DF-RKS iter   8: -2282.29631489909207   -3.33871e-05   7.55467e-06 DIIS
   @DF-RKS iter   9: -2282.29632425825685   -9.35916e-06   2.00138e-06 DIIS
   @DF-RKS iter  10: -2282.29632489468486   -6.36428e-07   4.76325e-07 DIIS
   @DF-RKS iter  11: -2282.29632492043947   -2.57546e-08   2.38696e-07 DIIS
   @DF-RKS iter  12: -2282.29632492842256   -7.98309e-09   3.22958e-08 DIIS
   @DF-RKS iter  13: -2282.29632492849032   -6.77574e-11   2.76864e-08 DIIS
   @DF-RKS iter  14: -2282.29632492861538   -1.25056e-10   8.48026e-09 DIIS
   @DF-RKS iter  15: -2282.29632492862902   -1.36424e-11   4.43115e-09 DIIS
   @DF-RKS iter  16: -2282.29632492863311   -4.09273e-12   2.08178e-09 DIIS
   @DF-RKS iter  17: -2282.29632492862947    3.63798e-12   5.11158e-10 DIIS
   @DF-RKS iter  18: -2282.29632492862447    5.00222e-12   2.56758e-10 DIIS
   @DF-RKS iter  19: -2282.29632492862856   -4.09273e-12   8.47788e-11 DIIS

  DF guess converged.

  ==> DirectJK: Integral-Direct J/K Matrices <==

    J tasked:                  Yes
    K tasked:                  Yes
    wK tasked:                  No
    Integrals threads:           8
    Schwarz Cutoff:          1E-12

   @RKS iter  20: -2282.29682716989737   -2.28230e+03   4.13193e-07 DIIS
   @RKS iter  21: -2282.29682720992014   -4.00228e-08   1.37264e-07 DIIS
   @RKS iter  22: -2282.29682720952587    3.94266e-10   1.61379e-07 DIIS
   @RKS iter  23: -2282.29682721247900   -2.95313e-09   6.23917e-08 DIIS
   @RKS iter  24: -2282.29682721292647   -4.47471e-10   1.31803e-08 DIIS
   @RKS iter  25: -2282.29682721295467   -2.81943e-11   3.76977e-09 DIIS
   @RKS iter  26: -2282.29682721295194    2.72848e-12   2.66639e-09 DIIS
   @RKS iter  27: -2282.29682721295285   -9.09495e-13   5.29522e-10 DIIS
   @RKS iter  28: -2282.29682721295421   -1.36424e-12   3.11146e-10 DIIS
   @RKS iter  29: -2282.29682721295285    1.36424e-12   7.18138e-11 DIIS
  Energy and wave function converged.


  ==> Post-Iterations <==

    Orbital Energies [Eh]
    ---------------------

    Doubly Occupied:                                                      

       1A    -19.139532     2A    -19.138942     3A    -19.138682  
       4A    -14.408858     5A    -14.408837     6A    -14.408637  
       7A    -14.367458     8A    -14.367234     9A    -14.367143  
      10A    -10.316728    11A    -10.316702    12A    -10.316542  
      13A    -10.301218    14A    -10.301134    15A    -10.301046  
      16A    -10.231604    17A    -10.231322    18A    -10.231027  
      19A    -10.225459    20A    -10.225155    21A    -10.225103  
      22A    -10.224991    23A    -10.224973    24A    -10.224906  
      25A    -10.221517    26A    -10.221411    27A    -10.221176  
      28A    -10.219561    29A    -10.219373    30A    -10.219226  
      31A    -10.219139    32A    -10.219041    33A    -10.219021  
      34A    -10.218959    35A    -10.218809    36A    -10.217758  
      37A    -10.212634    38A    -10.212305    39A    -10.211961  
      40A    -10.209956    41A    -10.209610    42A    -10.209584  
      43A    -10.209498    44A    -10.209377    45A    -10.209271  
      46A    -10.209041    47A    -10.208545    48A    -10.208281  
      49A    -10.203014    50A    -10.202612    51A    -10.202351  
      52A    -10.201670    53A    -10.201460    54A    -10.201241  
      55A     -1.087808    56A     -1.087622    57A     -1.087456  
      58A     -1.083444    59A     -0.978110    60A     -0.977722  
      61A     -0.977468    62A     -0.957282    63A     -0.957246  
      64A     -0.896267    65A     -0.895028    66A     -0.894953  
      67A     -0.834932    68A     -0.834518    69A     -0.834306  
      70A     -0.814826    71A     -0.814691    72A     -0.808770  
      73A     -0.803777    74A     -0.803537    75A     -0.801457  
      76A     -0.782097    77A     -0.781704    78A     -0.781608  
      79A     -0.763600    80A     -0.763320    81A     -0.761380  
      82A     -0.735692    83A     -0.735448    84A     -0.726896  
      85A     -0.717082    86A     -0.716951    87A     -0.692674  
      88A     -0.670728    89A     -0.670660    90A     -0.655025  
      91A     -0.643177    92A     -0.641560    93A     -0.641329  
      94A     -0.636999    95A     -0.636945    96A     -0.632978  
      97A     -0.613708    98A     -0.613619    99A     -0.603877  
     100A     -0.601693   101A     -0.601020   102A     -0.584677  
     103A     -0.574028   104A     -0.555529   105A     -0.555319  
     106A     -0.542642   107A     -0.535136   108A     -0.534970  
     109A     -0.529134   110A     -0.506444   111A     -0.506118  
     112A     -0.499328   113A     -0.494694   114A     -0.494373  
     115A     -0.494144   116A     -0.489201   117A     -0.488695  
     118A     -0.488431   119A     -0.484318   120A     -0.483950  
     121A     -0.480044   122A     -0.473829   123A     -0.466852  
     124A     -0.466485   125A     -0.458238   126A     -0.458050  
     127A     -0.457856   128A     -0.457392   129A     -0.456225  
     130A     -0.455439   131A     -0.450763   132A     -0.450095  
     133A     -0.448982   134A     -0.438169   135A     -0.432430  
     136A     -0.432154   137A     -0.414150   138A     -0.413644  
     139A     -0.405022   140A     -0.394604   141A     -0.393093  
     142A     -0.392877   143A     -0.383892   144A     -0.378602  
     145A     -0.378424   146A     -0.373543   147A     -0.371683  
     148A     -0.371074   149A     -0.367560   150A     -0.361132  
     151A     -0.360794   152A     -0.355866   153A     -0.355647  
     154A     -0.355430   155A     -0.346107   156A     -0.344011  
     157A     -0.343727   158A     -0.294818   159A     -0.294549  
     160A     -0.294491   161A     -0.286636   162A     -0.286301  
     163A     -0.285273   164A     -0.284934   165A     -0.283422  
     166A     -0.282451   167A     -0.282228   168A     -0.281426  
     169A     -0.280630   170A     -0.279738   171A     -0.278738  
     172A     -0.270935   173A     -0.269245   174A     -0.268534  
     175A     -0.245338   176A     -0.245116   177A     -0.244902  
     178A     -0.208604   179A     -0.208538   180A     -0.208279  

    Virtual:                                                              

     181A     -0.099830   182A     -0.099730   183A     -0.070325  
     184A     -0.058509   185A     -0.058178   186A     -0.047584  
     187A     -0.045317   188A     -0.044991   189A     -0.044674  
     190A     -0.027072   191A     -0.025780   192A     -0.024063  
     193A     -0.014661   194A     -0.013476   195A      0.024043  
     196A      0.037202   197A      0.038523   198A      0.038830  
     199A      0.051259   200A      0.052722   201A      0.061196  
     202A      0.062540   203A      0.067384   204A      0.089978  
     205A      0.099640   206A      0.103154   207A      0.105993  
     208A      0.110645   209A      0.111142   210A      0.114629  
     211A      0.126154   212A      0.126350   213A      0.126548  
     214A      0.129462   215A      0.130269   216A      0.138550  
     217A      0.139005   218A      0.139228   219A      0.148414  
     220A      0.153243   221A      0.154446   222A      0.154525  
     223A      0.164420   224A      0.166301   225A      0.167083  
     226A      0.169926   227A      0.171757   228A      0.175456  
     229A      0.176873   230A      0.177894   231A      0.179131  
     232A      0.206528   233A      0.207922   234A      0.209139  
     235A      0.211122   236A      0.214049   237A      0.228722  
     238A      0.228978   239A      0.230566   240A      0.234965  
     241A      0.237850   242A      0.238123   243A      0.238366  
     244A      0.243901   245A      0.244661   246A      0.245722  
     247A      0.260915   248A      0.261652   249A      0.262736  
     250A      0.266671   251A      0.267947   252A      0.270898  
     253A      0.281926   254A      0.283102   255A      0.290772  
     256A      0.294334   257A      0.296643   258A      0.297582  
     259A      0.300445   260A      0.301536   261A      0.302018  
     262A      0.315201   263A      0.319235   264A      0.320175  
     265A      0.325978   266A      0.334982   267A      0.335933  
     268A      0.336384   269A      0.354549   270A      0.355823  
     271A      0.368857   272A      0.369615   273A      0.377502  
     274A      0.388381   275A      0.389223   276A      0.389506  
     277A      0.390251   278A      0.395405   279A      0.396354  
     280A      0.409553   281A      0.411720   282A      0.413718  
     283A      0.431289   284A      0.431513   285A      0.431800  
     286A      0.446899   287A      0.448828   288A      0.459958  
     289A      0.470121   290A      0.483425   291A      0.484083  
     292A      0.495087   293A      0.495209   294A      0.497090  
     295A      0.501030   296A      0.505392   297A      0.505484  
     298A      0.510227   299A      0.511845   300A      0.512028  
     301A      0.516428   302A      0.518759   303A      0.518953  
     304A      0.522848   305A      0.523123   306A      0.526929  
     307A      0.528506   308A      0.534421   309A      0.542375  
     310A      0.542638   311A      0.546226   312A      0.546981  
     313A      0.554913   314A      0.555389   315A      0.556092  
     316A      0.563357   317A      0.565212   318A      0.566906  
     319A      0.569777   320A      0.576481   321A      0.577682  
     322A      0.581736   323A      0.582263   324A      0.582923  
     325A      0.588474   326A      0.588758   327A      0.591846  
     328A      0.594811   329A      0.595866   330A      0.596975  
     331A      0.601911   332A      0.605161   333A      0.605645  
     334A      0.606215   335A      0.609299   336A      0.609872  
     337A      0.612792   338A      0.614013   339A      0.615022  
     340A      0.616984   341A      0.617105   342A      0.626550  
     343A      0.626888   344A      0.632471   345A      0.633463  
     346A      0.635033   347A      0.637791   348A      0.643134  
     349A      0.649729   350A      0.652615   351A      0.653274  
     352A      0.662824   353A      0.668230   354A      0.670929  
     355A      0.671266   356A      0.674709   357A      0.680705  
     358A      0.681061   359A      0.681240   360A      0.681707  
     361A      0.682660   362A      0.684350   363A      0.696255  
     364A      0.697098   365A      0.700720   366A      0.709719  
     367A      0.709812   368A      0.714669   369A      0.726300  
     370A      0.728953   371A      0.734331   372A      0.735484  
     373A      0.735795   374A      0.746301   375A      0.747641  
     376A      0.748965   377A      0.757150   378A      0.777932  
     379A      0.779433   380A      0.779781   381A      0.780026  
     382A      0.780195   383A      0.783259   384A      0.785238  
     385A      0.785939   386A      0.804168   387A      0.807766  
     388A      0.810040   389A      0.810854   390A      0.814095  
     391A      0.816173   392A      0.822961   393A      0.826113  
     394A      0.829980   395A      0.830777   396A      0.831900  
     397A      0.833915   398A      0.842357   399A      0.843591  
     400A      0.852807   401A      0.853021   402A      0.854503  
     403A      0.856866   404A      0.858798   405A      0.859369  
     406A      0.878156   407A      0.878340   408A      0.878545  
     409A      0.887330   410A      0.888184   411A      0.888933  
     412A      0.894053   413A      0.898343   414A      0.902363  
     415A      0.906876   416A      0.909112   417A      0.926817  
     418A      0.932563   419A      0.934906   420A      0.941311  
     421A      0.942547   422A      0.943656   423A      0.944004  
     424A      0.945121   425A      0.947123   426A      0.948882  
     427A      0.960431   428A      0.961102   429A      0.963404  
     430A      0.967918   431A      0.968893   432A      0.969682  
     433A      0.978050   434A      0.980921   435A      0.986068  
     436A      0.994498   437A      0.995766   438A      0.997135  
     439A      0.998581   440A      1.001996   441A      1.017361  
     442A      1.020693   443A      1.021202   444A      1.024777  
     445A      1.028050   446A      1.029283   447A      1.029962  
     448A      1.051636   449A      1.057772   450A      1.065952  
     451A      1.070054   452A      1.074521   453A      1.075608  
     454A      1.083419   455A      1.083583   456A      1.083744  
     457A      1.102103   458A      1.103977   459A      1.108099  
     460A      1.113730   461A      1.117874   462A      1.119743  
     463A      1.122273   464A      1.124474   465A      1.125441  
     466A      1.129659   467A      1.133575   468A      1.135935  
     469A      1.153219   470A      1.164887   471A      1.166015  
     472A      1.176079   473A      1.180601   474A      1.182317  
     475A      1.186333   476A      1.187041   477A      1.187379  
     478A      1.194509   479A      1.209564   480A      1.210263  
     481A      1.211038   482A      1.227242   483A      1.230019  
     484A      1.233168   485A      1.246129   486A      1.252213  
     487A      1.266105   488A      1.266796   489A      1.268032  
     490A      1.272599   491A      1.273955   492A      1.282900  
     493A      1.299109   494A      1.303100   495A      1.308181  
     496A      1.314380   497A      1.322012   498A      1.326941  
     499A      1.392997   500A      1.400514   501A      1.407681  
     502A      1.413417   503A      1.433226   504A      1.449427  
     505A      1.453882   506A      1.473411   507A      1.475969  
     508A      1.488932   509A      1.513220   510A      1.515005  
     511A      1.578092   512A      1.583772   513A      1.597738  
     514A      1.628463   515A      1.639001   516A      1.644789  
     517A      1.666882   518A      1.717662   519A      1.718089  
     520A      1.718221   521A      1.918042   522A      1.922330  
     523A      1.922806   524A      1.925649   525A      1.928056  
     526A      1.929104   527A      1.995485   528A      1.998334  
     529A      2.001210   530A      2.024102   531A      2.033753  
     532A      2.039748   533A      2.069340   534A      2.076209  

    Final Occupation by Irrep:
              A 
    DOCC [   180 ]

  @RKS Final Energy: -2282.29682721295285

   => Energetics <=

    Nuclear Repulsion Energy =           5091.4871327640421441
    One-Electron Energy =              -13216.6803052954874147
    Two-Electron Energy =                6102.2356654828763567
    DFT Exchange-Correlation Energy =    -259.3393201643841621
    Empirical Dispersion Energy =           0.0000000000000000
    VV10 Nonlocal Energy =                  0.0000000000000000
    Total Energy =                      -2282.2968272129528486

Computation Completed


Properties will be evaluated at   0.000000,   0.000000,   0.000000 [a0]

Properties computed using the SCF density matrix

  Nuclear Dipole Moment: [e a0]
     X:    -4.4890      Y:    -1.0402      Z:     0.8582

  Electronic Dipole Moment: [e a0]
     X:     3.2608      Y:     0.8761      Z:    -0.6721

  Dipole Moment: [e a0]
     X:    -1.2282      Y:    -0.1641      Z:     0.1860     Total:     1.2530

  Dipole Moment: [D]
     X:    -3.1217      Y:    -0.4171      Z:     0.4728     Total:     3.1847


*** tstop() called on Rubens-MacBook-Pro-2.local at Sat Jan 23 22:00:05 2021
Module time:
	user time   =    6315.71 seconds =     105.26 minutes
	system time =     779.54 seconds =      12.99 minutes
	total time  =       2184 seconds =      36.40 minutes
Total time:
	user time   =    6315.71 seconds =     105.26 minutes
	system time =     779.54 seconds =      12.99 minutes
	total time  =       2184 seconds =      36.40 minutes

    Psi4 stopped on: Saturday, 23 January 2021 10:00PM
    Psi4 wall time for execution: 0:36:28.48

*** Psi4 exiting successfully. Buy a developer a beer!
