
    -----------------------------------------------------------------------
          Psi4: An Open-Source Ab Initio Electronic Structure Package
                               Psi4 1.3.2 release

                         Git: Rev {HEAD} ecbda83 


    R. M. Parrish, L. A. Burns, D. G. A. Smith, A. C. Simmonett,
    A. E. DePrince III, E. G. Hohenstein, U. Bozkaya, A. Yu. Sokolov,
    R. Di Remigio, R. M. Richard, J. F. Gonthier, A. M. James,
    H. R. McAlexander, A. Kumar, M. Saitow, X. Wang, B. P. Pritchard,
    P. Verma, H. F. Schaefer III, K. Patkowski, R. A. King, E. F. Valeev,
    F. A. Evangelista, J. M. Turney, T. D. Crawford, and C. D. Sherrill,
    J. Chem. Theory Comput. 13(7) pp 3185--3197 (2017).
    (doi: 10.1021/acs.jctc.7b00174)


                         Additional Contributions by
    P. Kraus, H. Kruse, M. H. Lechner, M. C. Schieber, R. A. Shaw,
    A. Alenaizan, R. Galvelis, Z. L. Glick, S. Lehtola, and J. P. Misiewicz

    -----------------------------------------------------------------------


    Psi4 started on: Thursday, 28 January 2021 10:05PM

    Process ID: 95521
    Host:       Rubens-MacBook-Pro-2.local
    PSIDATADIR: /opt/anaconda3/envs/p4env/share/psi4
    Memory:     500.0 MiB
    Threads:    8
    
  ==> Input File <==

--------------------------------------------------------------------------
memory 8gb
molecule {
    symmetry c1 # this is important; some perturbations will break symmetry
#    no_reorient
N         0.22865335412548   -2.41847723888949   -0.01094411566058
C         0.28297197222917   -2.35524545361232    1.31808412563266
C         0.20317278977531   -1.28482706750435   -0.68294675580940
C         0.09256630109172   -0.07777106661480   -2.60220049375416
C         0.36342044649744    2.18184540506590    1.32341358362285
N         0.24619262948058   -0.08440569754532    0.01297537281376
N         0.13372175859043   -1.26378347577838   -1.99922923353959
N         0.26868226127516    2.25040949236675   -0.00246008077993
N         0.32832303407930   -1.23799402906009    2.04037351299192
C         0.29226911220659   -3.61794359632660    2.04754248278931
N         0.38381884326671    1.06138537609837    2.04241330799309
C         0.32070471324918   -0.08700854521599    1.39891653364884
C         0.45302575221793    3.44232514890684    2.05100848883318
C         0.21200809423249    1.11952199706044   -0.67659655387840
N         0.12688355589371    1.10486818621062   -1.99126407150776
C         0.00240977166180   -0.06618173146014   -4.05763257327488
H         0.32683115098431   -4.80292753579700    0.27353972767484
C         0.29425779905552   -3.62119414164239    3.44370775182549
C         0.29341082227975   -6.02982566916202    3.43450394694620
C         0.31007624933837   -4.82748742549672    1.35160527531806
C         0.31143629003497   -7.27927924466031    4.24850328007023
H         0.36252282383415   -6.94753362946315    1.48070356026860
C         0.31180874284905   -6.02335098690324    2.03958716056086
C         0.29955786409428   -4.81822032088844    4.12604258028863
H         0.29383229959245   -2.67700323008642    3.96431239384239
H         0.30921842321662   -4.84515615626362    5.20527433739518
C         0.01239693293139   -1.26173233505347   -4.77811196346894
C        -0.07248188250232   -1.23308343427019   -6.15360203604132
H        -0.31428334439861    2.12404243134973   -6.60956493292248
C        -0.10852377820504    1.14970689583217   -4.73397044589514
H         0.08487246670732   -2.19229122558799   -4.23824429291336
H        -0.13285074799435    2.06068284333980   -4.15735141990869
C        -0.19067024340695    1.17296943712603   -6.11040625952817
C        -0.15942277317943   -0.01886799517196   -6.83495096635354
C        -0.26278326506273   -0.06985967505325   -8.32217201016887
H        -0.07426766654952   -2.14518664645380   -6.73123381910501
C         0.72577225767647    7.16588602026308    4.12701823336592
H         0.44348749415886    6.79299202696661    1.55114851659600
C         0.48093593789612    5.84222705612847    2.06123908234087
H         0.87459187264478    4.59794992833940    5.19701997967728
H         0.27457593826268    4.64102318922750    0.29303755290933
C         0.62464460686582    5.84141481649887    3.44881027710120
C         0.62091946907962    3.43657348974079    3.43644520027289
C         0.70719280244579    4.62630259126728    4.12921788433012
H         0.68616209624752    2.48770323599197    3.94483188857891
C         0.39056677397325    4.65653490523201    1.36488436728830
O         0.79447023439818   -7.33924651622485    5.35779860832909
N        -0.28600186410313   -8.35518100758828    3.63727369317838
C        -0.45821341886540  -11.87777956682277    5.40139499735597
N         0.24441708729709    1.04033544469155   -8.95302764330552
O        -0.73966404824117   -1.00794267448294   -8.92201130829647
C        -1.17681834002317   10.47307116359428   12.59153080660678
C         0.22531015331500    1.20513483501842  -10.28130997070021
H         0.71877446462194   11.31270733996550    7.19687521820103
C         0.17130967379364    1.31767948942752  -11.48201647037357
C         0.34276021145701   10.40935087198630    7.66314273805589
C        -2.54622671596318  -16.08721864836684    3.27496377372034
C        -0.36942774982912   -9.56256625435506    4.20957354393413
C         0.12294895657113    1.48554802610721  -12.86969142093103
C        -2.02445482148993  -15.02157302385581    3.80812932740052
C         0.51793407026916    2.58659288200812  -13.47958576845858
C        -0.42721764284767   10.43587839597910   10.12860453102051
C        -0.40318812301220  -10.62777674064884    4.77667645780910
H        -0.26504456776569    0.65089167105763  -13.44212154715441
C         0.88804451963837    3.64250017432511  -14.06745752464952
H        -0.48770918988781   10.26473389446759   13.39543007045326
C         1.25187558710836    4.70747396625128  -14.66443672717986
H         0.93482714112430    6.60496804663010  -15.45687901747520
C        -1.51206309898113  -13.97729403428435    4.32758929507237
H        -3.58734425283364  -16.33680519084664    3.40959509048170
C         1.62443329400597    5.79571295768701  -15.27195104300774
C        -0.99885442757571  -12.94624095096700    4.84823560527097
H        -1.95886772840866  -16.76700321626405    2.67728267772666
O         1.16412876373209    8.15638026258534    3.58478439881313
N         0.26048983873790    7.16697880469390    5.41979614018338
H        -0.02058883455742  -11.93699958389894    6.39155322688491
C         0.26941229348640    8.25470483512531    6.20003578743367
C        -0.05277983106460   10.42248657359048    8.92151135569109
C         0.31196004136403    9.26396266992886    6.86115825514186
H        -2.19484990449436   10.69550967123509   12.87189014230603
C        -0.79859586401190   10.45646818199056   11.34702087075818
H         2.63741666620708    5.93446868452176  -15.61709872258882
H        -0.15905049982251    6.33103497667136    5.80346346567967
H         0.69728927568591    1.76257886060919   -8.40960114613905
H        -0.73685315178029   -8.23885219058750    2.73999985228453

}
set {
    basis     6-31g
    d_convergence   10
    reference rhf
    scf_type direct
}

method = 'B3LYP'
E, wfn = energy(method, return_wfn=True)
molden(wfn, 'HS_25.molden')
--------------------------------------------------------------------------

  Memory set to   7.451 GiB by Python driver.

*** tstart() called on Rubens-MacBook-Pro-2.local
*** at Thu Jan 28 22:05:29 2021

   => Loading Basis Set <=

    Name: 6-31G
    Role: ORBITAL
    Keyword: BASIS
    atoms 1, 6-9, 11, 15, 48, 50, 75                                                                                            entry N          line   102 file /opt/anaconda3/envs/p4env/share/psi4/basis/6-31g.gbs 
    atoms 2-5, 10, 12-14, 16, 18-21, 23-24, 27-28, 30, 33-35, 37, 39, 42-44, 46, 49, 52-53, 55-63, 65, 67, 69, 71-72, 77-79, 81 entry C          line    87 file /opt/anaconda3/envs/p4env/share/psi4/basis/6-31g.gbs 
    atoms 17, 22, 25-26, 29, 31-32, 36, 38, 40-41, 45, 54, 64, 66, 68, 70, 73, 76, 80, 82-85                                    entry H          line    26 file /opt/anaconda3/envs/p4env/share/psi4/basis/6-31g.gbs 
    atoms 47, 51, 74                                                                                                            entry O          line   117 file /opt/anaconda3/envs/p4env/share/psi4/basis/6-31g.gbs 


         ---------------------------------------------------------
                                   SCF
               by Justin Turney, Rob Parrish, Andy Simmonett
                          and Daniel G. A. Smith
                              RKS Reference
                        8 Threads,   7629 MiB Core
         ---------------------------------------------------------

  ==> Geometry <==

    Molecular point group: c1
    Full point group: C1

    Geometry (in Angstrom), charge = 0, multiplicity = 1:

       Center              X                  Y                   Z               Mass       
    ------------   -----------------  -----------------  -----------------  -----------------
         N            0.144239390877    -2.375144276013    -0.057267793290    14.003074004430
         C            0.198558008981    -2.311912490736     1.271760448003    12.000000000000
         C            0.118758826527    -1.241494104628    -0.729270433439    12.000000000000
         C            0.008152337844    -0.034438103738    -2.648524171384    12.000000000000
         C            0.279006483249     2.225178367943     1.277089905993    12.000000000000
         N            0.161778666232    -0.041072734669    -0.033348304816    14.003074004430
         N            0.049307795342    -1.220450512902    -2.045552911169    14.003074004430
         N            0.184268298027     2.293742455243    -0.048783758409    14.003074004430
         N            0.243909070831    -1.194661066183     1.994049835362    14.003074004430
         C            0.207855148958    -3.574610633450     2.001218805160    12.000000000000
         N            0.299404880019     1.104718338975     1.996089630364    14.003074004430
         C            0.236290750001    -0.043675582339     1.352592856019    12.000000000000
         C            0.368611788970     3.485658111784     2.004684811204    12.000000000000
         C            0.127594130984     1.162854959937    -0.722920231508    12.000000000000
         N            0.042469592646     1.148201149087    -2.037587749137    14.003074004430
         C           -0.082004191586    -0.022848768583    -4.103956250904    12.000000000000
         H            0.242417187736    -4.759594572920     0.227216050045     1.007825032230
         C            0.209843835807    -3.577861178766     3.397384074196    12.000000000000
         C            0.208996859032    -5.986492706285     3.388180269317    12.000000000000
         C            0.225662286090    -4.784154462620     1.305281597689    12.000000000000
         C            0.227022326787    -7.235946281784     4.202179602441    12.000000000000
         H            0.278108860586    -6.904200666586     1.434379882639     1.007825032230
         C            0.227394779601    -5.980018024027     1.993263482931    12.000000000000
         C            0.215143900846    -4.774887358012     4.079718902659    12.000000000000
         H            0.209418336344    -2.633670267210     3.917988716213     1.007825032230
         H            0.224804459969    -4.801823193387     5.158950659766     1.007825032230
         C           -0.072017030317    -1.218399372177    -4.824435641098    12.000000000000
         C           -0.156895845750    -1.189750471394    -6.199925713671    12.000000000000
         H           -0.398697307647     2.167375394226    -6.655888610552     1.007825032230
         C           -0.192937741453     1.193039858709    -4.780294123525    12.000000000000
         H            0.000458503459    -2.148958262711    -4.284567970543     1.007825032230
         H           -0.217264711242     2.104015806216    -4.203675097538     1.007825032230
         C           -0.275084206655     1.216302400003    -6.156729937158    12.000000000000
         C           -0.243836736428     0.024464967705    -6.881274643983    12.000000000000
         C           -0.347197228311    -0.026526712177    -8.368495687798    12.000000000000
         H           -0.158681629798    -2.101853683577    -6.777557496734     1.007825032230
         C            0.641358294428     7.209218983140     4.080694555736    12.000000000000
         H            0.359073530911     6.836324989843     1.504824838967     1.007825032230
         C            0.396521974648     5.885560019005     2.014915404711    12.000000000000
         H            0.790177909397     4.641282891216     5.150696302048     1.007825032230
         H            0.190161975015     4.684356152104     0.246713875280     1.007825032230
         C            0.540230643618     5.884747779376     3.402486599472    12.000000000000
         C            0.536505505832     3.479906452617     3.390121522643    12.000000000000
         C            0.622778839198     4.669635554144     4.082894206701    12.000000000000
         H            0.601748132999     2.531036198869     3.898508210949     1.007825032230
         C            0.306152810725     4.699867868109     1.318560689659    12.000000000000
         O            0.710056271150    -7.295913553348     5.311474930700    15.994914619570
         N           -0.370415827351    -8.311848044712     3.590950015549    14.003074004430
         C           -0.542627382114   -11.834446603946     5.355071319726    12.000000000000
         N            0.160003124049     1.083668407568    -8.999351320935    14.003074004430
         O           -0.824078011489    -0.964609711606    -8.968334985926    15.994914619570
         C           -1.261232303271    10.516404126471    12.545207128977    12.000000000000
         C            0.140896190067     1.248467797895   -10.327633648330    12.000000000000
         H            0.634360501374    11.356040302842     7.150551540572     1.007825032230
         C            0.086895710546     1.361012452304   -11.528340148003    12.000000000000
         C            0.258346248209    10.452683834863     7.616819060426    12.000000000000
         C           -2.630640679211   -16.043885685490     3.228640096091    12.000000000000
         C           -0.453841713077    -9.519233291478     4.163249866305    12.000000000000
         C            0.038534993323     1.528880988984   -12.916015098561    12.000000000000
         C           -2.108868784738   -14.978240060979     3.761805649771    12.000000000000
         C            0.433520107021     2.629925844885   -13.525909446088    12.000000000000
         C           -0.511631606096    10.479211358856    10.082280853391    12.000000000000
         C           -0.487602086260   -10.584443777772     4.730352780180    12.000000000000
         H           -0.349458531014     0.694224633934   -13.488445224784     1.007825032230
         C            0.803630556390     3.685833137202   -14.113781202279    12.000000000000
         H           -0.572123153136    10.308066857344    13.349106392824     1.007825032230
         C            1.167461623860     4.750806929128   -14.710760404809    12.000000000000
         H            0.850413177876     6.648301009507   -15.503202695105     1.007825032230
         C           -1.596477062229   -13.933961071408     4.281265617443    12.000000000000
         H           -3.671758216082   -16.293472227970     3.363271412852     1.007825032230
         C            1.540019330758     5.839045920564   -15.318274720637    12.000000000000
         C           -1.083268390824   -12.902907988090     4.801911927641    12.000000000000
         H           -2.043281691657   -16.723670253387     2.630959000097     1.007825032230
         O            1.079714800484     8.199713225462     3.538460721184    15.994914619570
         N            0.176075875490     7.210311767571     5.373472462554    14.003074004430
         H           -0.105002797806   -11.893666621022     6.345229549255     1.007825032230
         C            0.184998330238     8.298037798002     6.153712109804    12.000000000000
         C           -0.137193794313    10.465819536467     8.875187678062    12.000000000000
         C            0.227546078116     9.307295632806     6.814834577512    12.000000000000
         H           -2.279263867742    10.738842634112    12.825566464677     1.007825032230
         C           -0.883009827260    10.499801144867    11.300697193129    12.000000000000
         H            2.553002702959     5.977801647398   -15.663422400218     1.007825032230
         H           -0.243464463071     6.374367939548     5.757139788050     1.007825032230
         H            0.612875312438     1.805911823486    -8.455924823769     1.007825032230
         H           -0.821267115028    -8.195519227711     2.693676174655     1.007825032230

  Running in c1 symmetry.

  Rotational constants: A =      0.00050  B =      0.00048  C =      0.00025 [cm^-1]
  Rotational constants: A =     15.00668  B =     14.52824  C =      7.43781 [MHz]
  Nuclear repulsion = 6211.439436616259627

  Charge       = 0
  Multiplicity = 1
  Electrons    = 406
  Nalpha       = 203
  Nbeta        = 203

  ==> Algorithm <==

  SCF Algorithm Type is DIRECT.
  DIIS enabled.
  MOM disabled.
  Fractional occupation disabled.
  Guess Type is SAD.
  Energy threshold   = 1.00e-06
  Density threshold  = 1.00e-10
  Integral threshold = 0.00e+00

  ==> Primary Basis <==

  Basis Set: 6-31G
    Blend: 6-31G
    Number of shells: 353
    Number of basis function: 597
    Number of Cartesian functions: 597
    Spherical Harmonics?: false
    Max angular momentum: 1

  ==> DFT Potential <==

   => Composite Functional: B3LYP <= 

    B3LYP Hyb-GGA Exchange-Correlation Functional

    P. J. Stephens, F. J. Devlin, C. F. Chabalowski, and M. J. Frisch, J. Phys. Chem. 98, 11623 (1994)

    Deriv               =              1
    GGA                 =           TRUE
    Meta                =          FALSE

    Exchange Hybrid     =           TRUE
    MP2 Hybrid          =          FALSE

   => Exchange Functionals <=

    0.0800   Slater exchange
    0.7200         Becke 88

   => Exact (HF) Exchange <=

    0.2000               HF 

   => Correlation Functionals <=

    0.1900   Vosko, Wilk & Nusair (VWN5_RPA)
    0.8100   Lee, Yang & Parr

   => Molecular Quadrature <=

    Radial Scheme          =       TREUTLER
    Pruning Scheme         =           FLAT
    Nuclear Scheme         =       TREUTLER

    BS radius alpha        =              1
    Pruning alpha          =              1
    Radial Points          =             75
    Spherical Points       =            302
    Total Points           =        1877002
    Total Blocks           =          13965
    Max Points             =            256
    Max Functions          =            219

   => Loading Basis Set <=

    Name: (6-31G AUX)
    Role: JKFIT
    Keyword: DF_BASIS_SCF
    atoms 1, 6-9, 11, 15, 48, 50, 75                                                                                            entry N          line   171 file /opt/anaconda3/envs/p4env/share/psi4/basis/cc-pvdz-jkfit.gbs 
    atoms 2-5, 10, 12-14, 16, 18-21, 23-24, 27-28, 30, 33-35, 37, 39, 42-44, 46, 49, 52-53, 55-63, 65, 67, 69, 71-72, 77-79, 81 entry C          line   121 file /opt/anaconda3/envs/p4env/share/psi4/basis/cc-pvdz-jkfit.gbs 
    atoms 17, 22, 25-26, 29, 31-32, 36, 38, 40-41, 45, 54, 64, 66, 68, 70, 73, 76, 80, 82-85                                    entry H          line    51 file /opt/anaconda3/envs/p4env/share/psi4/basis/cc-pvdz-jkfit.gbs 
    atoms 47, 51, 74                                                                                                            entry O          line   221 file /opt/anaconda3/envs/p4env/share/psi4/basis/cc-pvdz-jkfit.gbs 

  Starting with a DF guess...

  ==> Pre-Iterations <==

   -------------------------------------------------------
    Irrep   Nso     Nmo     Nalpha   Nbeta   Ndocc  Nsocc
   -------------------------------------------------------
     A        597     597       0       0       0       0
   -------------------------------------------------------
    Total     597     597     203     203     203       0
   -------------------------------------------------------

  ==> Integral Setup <==

  DFHelper Memory: AOs need 4.676 GiB; user supplied 4.676 GiB. Using in-core AOs.

  ==> MemDFJK: Density-Fitted J/K Matrices <==

    J tasked:                   Yes
    K tasked:                   Yes
    wK tasked:                   No
    OpenMP threads:               8
    Memory [MiB]:              4788
    Algorithm:                 Disk
    Schwarz Cutoff:           1E-12
    Mask sparsity (%):      70.4578
    Fitting Condition:        1E-10

   => Auxiliary Basis Set <=

  Basis Set: (6-31G AUX)
    Blend: CC-PVDZ-JKFIT
    Number of shells: 1680
    Number of basis function: 5541
    Number of Cartesian functions: 5541
    Spherical Harmonics?: false
    Max angular momentum: 3

  Cached 16.7% of DFT collocation blocks in 1.005 [GiB].

  Minimum eigenvalue in the overlap matrix is 6.4219599452E-05.
  Using Symmetric Orthogonalization.

  SCF Guess: Superposition of Atomic Densities via on-the-fly atomic UHF.

  ==> Iterations <==

                           Total Energy        Delta E     RMS |[F,P]|

   @DF-RKS iter SAD: -2614.86679386442711   -2.61487e+03   0.00000e+00 
   @DF-RKS iter   1: -2613.11243772753369    1.75436e+00   3.57043e-03 DIIS
   @DF-RKS iter   2: -2610.71643979238524    2.39600e+00   4.99095e-03 DIIS
   @DF-RKS iter   3: -2610.08446668512806    6.31973e-01   3.03756e-03 DIIS
   @DF-RKS iter   4: -2611.45271116393496   -1.36824e+00   2.40244e-03 DIIS
   @DF-RKS iter   5: -2615.43440756760174   -3.98170e+00   5.56624e-04 DIIS
   @DF-RKS iter   6: -2615.46107724594094   -2.66697e-02   4.05690e-04 DIIS
   @DF-RKS iter   7: -2615.48586423689630   -2.47870e-02   1.38078e-04 DIIS
   @DF-RKS iter   8: -2615.48905988833621   -3.19565e-03   4.32357e-05 DIIS
   @DF-RKS iter   9: -2615.48929310347648   -2.33215e-04   2.70288e-05 DIIS
   @DF-RKS iter  10: -2615.48942692360424   -1.33820e-04   1.00262e-05 DIIS
   @DF-RKS iter  11: -2615.48944471298091   -1.77894e-05   7.75113e-06 DIIS
   @DF-RKS iter  12: -2615.48946186170633   -1.71487e-05   3.13068e-06 DIIS
   @DF-RKS iter  13: -2615.48946437449740   -2.51279e-06   1.83976e-06 DIIS
   @DF-RKS iter  14: -2615.48946508229528   -7.07798e-07   7.43109e-07 DIIS
   @DF-RKS iter  15: -2615.48946518740331   -1.05108e-07   2.80736e-07 DIIS
   @DF-RKS iter  16: -2615.48946520089794   -1.34946e-08   1.18005e-07 DIIS
   @DF-RKS iter  17: -2615.48946520329582   -2.39788e-09   4.75304e-08 DIIS
   @DF-RKS iter  18: -2615.48946520362369   -3.27873e-10   2.37450e-08 DIIS
   @DF-RKS iter  19: -2615.48946520369964   -7.59428e-11   9.62974e-09 DIIS
   @DF-RKS iter  20: -2615.48946520371283   -1.31877e-11   4.29433e-09 DIIS
   @DF-RKS iter  21: -2615.48946520371555   -2.72848e-12   4.04330e-09 DIIS
   @DF-RKS iter  22: -2615.48946520371919   -3.63798e-12   1.08633e-09 DIIS
   @DF-RKS iter  23: -2615.48946520371601    3.18323e-12   1.26256e-10 DIIS
   @DF-RKS iter  24: -2615.48946520371965   -3.63798e-12   9.99199e-11 DIIS

  DF guess converged.

  ==> DirectJK: Integral-Direct J/K Matrices <==

    J tasked:                  Yes
    K tasked:                  Yes
    wK tasked:                  No
    Integrals threads:           8
    Schwarz Cutoff:          1E-12

   @RKS iter  25: -2615.49007518968892   -2.61549e+03   3.56609e-07 DIIS
   @RKS iter  26: -2615.49007522611100   -3.64221e-08   1.28626e-07 DIIS
   @RKS iter  27: -2615.49007522626607   -1.55069e-10   1.37746e-07 DIIS
   @RKS iter  28: -2615.49007522886177   -2.59570e-09   5.85084e-08 DIIS
   @RKS iter  29: -2615.49007522935062   -4.88853e-10   1.28996e-08 DIIS
   @RKS iter  30: -2615.49007522937063   -2.00089e-11   3.16380e-09 DIIS
   @RKS iter  31: -2615.49007522938018   -9.54969e-12   2.37853e-09 DIIS
   @RKS iter  32: -2615.49007522938155   -1.36424e-12   5.08584e-10 DIIS
   @RKS iter  33: -2615.49007522937563    5.91172e-12   2.52638e-10 DIIS
   @RKS iter  34: -2615.49007522938155   -5.91172e-12   8.34095e-11 DIIS
  Energy and wave function converged.


  ==> Post-Iterations <==

    Orbital Energies [Eh]
    ---------------------

    Doubly Occupied:                                                      

       1A    -19.140450     2A    -19.140428     3A    -19.140408  
       4A    -14.480596     5A    -14.410013     6A    -14.409964  
       7A    -14.409825     8A    -14.368406     9A    -14.368363  
      10A    -14.368223    11A    -14.368114    12A    -14.368103  
      13A    -14.368028    14A    -10.359344    15A    -10.359124  
      16A    -10.359038    17A    -10.317883    18A    -10.317877  
      19A    -10.317871    20A    -10.313828    21A    -10.313797  
      22A    -10.313740    23A    -10.232197    24A    -10.232191  
      25A    -10.232106    26A    -10.227936    27A    -10.227923  
      28A    -10.227912    29A    -10.225761    30A    -10.225743  
      31A    -10.225654    32A    -10.223366    33A    -10.223348  
      34A    -10.223348    35A    -10.219864    36A    -10.219862  
      37A    -10.219737    38A    -10.219526    39A    -10.219525  
      40A    -10.219480    41A    -10.219415    42A    -10.219385  
      43A    -10.219254    44A    -10.213851    45A    -10.213759  
      46A    -10.213436    47A    -10.211277    48A    -10.211012  
      49A    -10.210831    50A    -10.209979    51A    -10.209841  
      52A    -10.209769    53A    -10.209749    54A    -10.209684  
      55A    -10.209644    56A    -10.203672    57A    -10.203623  
      58A    -10.203579    59A    -10.201918    60A    -10.201898  
      61A    -10.201769    62A     -1.152229    63A     -1.088980  
      64A     -1.088911    65A     -1.088775    66A     -1.061983  
      67A     -1.061945    68A     -0.986472    69A     -0.979103  
      70A     -0.979075    71A     -0.978992    72A     -0.975092  
      73A     -0.975009    74A     -0.913478    75A     -0.898763  
      76A     -0.898753    77A     -0.898279    78A     -0.835400  
      79A     -0.835347    80A     -0.835166    81A     -0.822550  
      82A     -0.820522    83A     -0.820440    84A     -0.804829  
      85A     -0.804693    86A     -0.804602    87A     -0.783873  
      88A     -0.783791    89A     -0.782598    90A     -0.769103  
      91A     -0.767334    92A     -0.767271    93A     -0.752195  
      94A     -0.751438    95A     -0.751368    96A     -0.724995  
      97A     -0.724882    98A     -0.723935    99A     -0.690475  
     100A     -0.690318   101A     -0.681263   102A     -0.662471  
     103A     -0.662416   104A     -0.651437   105A     -0.651364  
     106A     -0.648485   107A     -0.640824   108A     -0.638621  
     109A     -0.638566   110A     -0.626515   111A     -0.626495  
     112A     -0.625930   113A     -0.605438   114A     -0.605224  
     115A     -0.603485   116A     -0.597357   117A     -0.597265  
     118A     -0.570360   119A     -0.566631   120A     -0.562292  
     121A     -0.554856   122A     -0.554798   123A     -0.538874  
     124A     -0.535412   125A     -0.535295   126A     -0.524119  
     127A     -0.506732   128A     -0.506706   129A     -0.494971  
     130A     -0.494953   131A     -0.494791   132A     -0.489528  
     133A     -0.489501   134A     -0.489237   135A     -0.485404  
     136A     -0.485243   137A     -0.483498   138A     -0.472747  
     139A     -0.472679   140A     -0.470161   141A     -0.469012  
     142A     -0.468640   143A     -0.458485   144A     -0.458437  
     145A     -0.458366   146A     -0.457426   147A     -0.456761  
     148A     -0.456686   149A     -0.451144   150A     -0.451091  
     151A     -0.450778   152A     -0.437788   153A     -0.435501  
     154A     -0.435445   155A     -0.423816   156A     -0.406715  
     157A     -0.406639   158A     -0.402963   159A     -0.398663  
     160A     -0.398563   161A     -0.385961   162A     -0.379734  
     163A     -0.379656   164A     -0.372930   165A     -0.371153  
     166A     -0.370937   167A     -0.370222   168A     -0.366827  
     169A     -0.366773   170A     -0.356142   171A     -0.356120  
     172A     -0.355997   173A     -0.350351   174A     -0.346675  
     175A     -0.346089   176A     -0.345783   177A     -0.344061  
     178A     -0.343963   179A     -0.294678   180A     -0.294143  
     181A     -0.293723   182A     -0.289763   183A     -0.289171  
     184A     -0.288256   185A     -0.287155   186A     -0.287037  
     187A     -0.285084   188A     -0.284429   189A     -0.283960  
     190A     -0.283798   191A     -0.282241   192A     -0.282010  
     193A     -0.280723   194A     -0.273939   195A     -0.270945  
     196A     -0.270892   197A     -0.259845   198A     -0.245639  
     199A     -0.245616   200A     -0.245509   201A     -0.209002  
     202A     -0.208859   203A     -0.208792  

    Virtual:                                                              

     204A     -0.130841   205A     -0.098205   206A     -0.098185  
     207A     -0.062092   208A     -0.061393   209A     -0.061339  
     210A     -0.045610   211A     -0.045592   212A     -0.045409  
     213A     -0.038893   214A     -0.038782   215A     -0.032529  
     216A     -0.023616   217A     -0.022531   218A     -0.022497  
     219A      0.018306   220A      0.018384   221A      0.036904  
     222A      0.037327   223A      0.037764   224A      0.038352  
     225A      0.064138   226A      0.064684   227A      0.065144  
     228A      0.070365   229A      0.070463   230A      0.106205  
     231A      0.108713   232A      0.109032   233A      0.112695  
     234A      0.113772   235A      0.113813   236A      0.122209  
     237A      0.125995   238A      0.126028   239A      0.126131  
     240A      0.138047   241A      0.138246   242A      0.138389  
     243A      0.139720   244A      0.139844   245A      0.141158  
     246A      0.145116   247A      0.157636   248A      0.158048  
     249A      0.164467   250A      0.166136   251A      0.166614  
     252A      0.167148   253A      0.169521   254A      0.170293  
     255A      0.170844   256A      0.175078   257A      0.175812  
     258A      0.177271   259A      0.177520   260A      0.177598  
     261A      0.195055   262A      0.204734   263A      0.204929  
     264A      0.208153   265A      0.209242   266A      0.209579  
     267A      0.213778   268A      0.224210   269A      0.224413  
     270A      0.237605   271A      0.237628   272A      0.237770  
     273A      0.245052   274A      0.245601   275A      0.245686  
     276A      0.251031   277A      0.258619   278A      0.258828  
     279A      0.262440   280A      0.264369   281A      0.264420  
     282A      0.276384   283A      0.276573   284A      0.280341  
     285A      0.283143   286A      0.283351   287A      0.289167  
     288A      0.297906   289A      0.299790   290A      0.299982  
     291A      0.300576   292A      0.303049   293A      0.303266  
     294A      0.309761   295A      0.322952   296A      0.323036  
     297A      0.331476   298A      0.331571   299A      0.333950  
     300A      0.335139   301A      0.335380   302A      0.355621  
     303A      0.357527   304A      0.357775   305A      0.374494  
     306A      0.386033   307A      0.386131   308A      0.388631  
     309A      0.390286   310A      0.390905   311A      0.394396  
     312A      0.394561   313A      0.399293   314A      0.406839  
     315A      0.421621   316A      0.421761   317A      0.431058  
     318A      0.431334   319A      0.431406   320A      0.438003  
     321A      0.449385   322A      0.463181   323A      0.471824  
     324A      0.471987   325A      0.481293   326A      0.482130  
     327A      0.491624   328A      0.493326   329A      0.494660  
     330A      0.497423   331A      0.498176   332A      0.501619  
     333A      0.502141   334A      0.506072   335A      0.510093  
     336A      0.511697   337A      0.516059   338A      0.516186  
     339A      0.517314   340A      0.520104   341A      0.520277  
     342A      0.523120   343A      0.526427   344A      0.528848  
     345A      0.530457   346A      0.535469   347A      0.535712  
     348A      0.542347   349A      0.544312   350A      0.551622  
     351A      0.552031   352A      0.553450   353A      0.559723  
     354A      0.559802   355A      0.563063   356A      0.564918  
     357A      0.565789   358A      0.577662   359A      0.577905  
     360A      0.579251   361A      0.584367   362A      0.585054  
     363A      0.585634   364A      0.588118   365A      0.590370  
     366A      0.591228   367A      0.593434   368A      0.594430  
     369A      0.595003   370A      0.599273   371A      0.599525  
     372A      0.603662   373A      0.604059   374A      0.604825  
     375A      0.608583   376A      0.609398   377A      0.609674  
     378A      0.613204   379A      0.613757   380A      0.614006  
     381A      0.616619   382A      0.617415   383A      0.617708  
     384A      0.626111   385A      0.629307   386A      0.631427  
     387A      0.632056   388A      0.635100   389A      0.637704  
     390A      0.637997   391A      0.645370   392A      0.646854  
     393A      0.647155   394A      0.653315   395A      0.653628  
     396A      0.669713   397A      0.669883   398A      0.670372  
     399A      0.679603   400A      0.680551   401A      0.680614  
     402A      0.681066   403A      0.681464   404A      0.681549  
     405A      0.693239   406A      0.694507   407A      0.694979  
     408A      0.702545   409A      0.702653   410A      0.708000  
     411A      0.708454   412A      0.708766   413A      0.718287  
     414A      0.734330   415A      0.734996   416A      0.735038  
     417A      0.745740   418A      0.745982   419A      0.746360  
     420A      0.748424   421A      0.760188   422A      0.760581  
     423A      0.778432   424A      0.779124   425A      0.779229  
     426A      0.779465   427A      0.781288   428A      0.782324  
     429A      0.783996   430A      0.807219   431A      0.807403  
     432A      0.808343   433A      0.811568   434A      0.812988  
     435A      0.817480   436A      0.821408   437A      0.821873  
     438A      0.822395   439A      0.823114   440A      0.825930  
     441A      0.827488   442A      0.832996   443A      0.837666  
     444A      0.839405   445A      0.840898   446A      0.842377  
     447A      0.846744   448A      0.852447   449A      0.852954  
     450A      0.853619   451A      0.856216   452A      0.857478  
     453A      0.857767   454A      0.872207   455A      0.877915  
     456A      0.877925   457A      0.878111   458A      0.887318  
     459A      0.887424   460A      0.887706   461A      0.899975  
     462A      0.901197   463A      0.901472   464A      0.905011  
     465A      0.906003   466A      0.910556   467A      0.924863  
     468A      0.927419   469A      0.930374   470A      0.932119  
     471A      0.934543   472A      0.939898   473A      0.941733  
     474A      0.942274   475A      0.943256   476A      0.944414  
     477A      0.944753   478A      0.946822   479A      0.954688  
     480A      0.954902   481A      0.965910   482A      0.966753  
     483A      0.967324   484A      0.977866   485A      0.978212  
     486A      0.983172   487A      0.987251   488A      0.988219  
     489A      0.989659   490A      0.995434   491A      0.995596  
     492A      1.001452   493A      1.011977   494A      1.015809  
     495A      1.016431   496A      1.024985   497A      1.025734  
     498A      1.025817   499A      1.028080   500A      1.031973  
     501A      1.032231   502A      1.056881   503A      1.057016  
     504A      1.070875   505A      1.074244   506A      1.074535  
     507A      1.082925   508A      1.083371   509A      1.083452  
     510A      1.084834   511A      1.095059   512A      1.109034  
     513A      1.109467   514A      1.110256   515A      1.120000  
     516A      1.120951   517A      1.121929   518A      1.122582  
     519A      1.123356   520A      1.127743   521A      1.129189  
     522A      1.130217   523A      1.148200   524A      1.162838  
     525A      1.163409   526A      1.176918   527A      1.177898  
     528A      1.179340   529A      1.185721   530A      1.185888  
     531A      1.186303   532A      1.206366   533A      1.207625  
     534A      1.207802   535A      1.208555   536A      1.222062  
     537A      1.223591   538A      1.223880   539A      1.236060  
     540A      1.236575   541A      1.257747   542A      1.268322  
     543A      1.268881   544A      1.269557   545A      1.273812  
     546A      1.275149   547A      1.291132   548A      1.292868  
     549A      1.309593   550A      1.315102   551A      1.315878  
     552A      1.339800   553A      1.364998   554A      1.370631  
     555A      1.371212   556A      1.398544   557A      1.399491  
     558A      1.416748   559A      1.424412   560A      1.433641  
     561A      1.445494   562A      1.446205   563A      1.462934  
     564A      1.463465   565A      1.493101   566A      1.513070  
     567A      1.513725   568A      1.534641   569A      1.535460  
     570A      1.590417   571A      1.623610   572A      1.626578  
     573A      1.629774   574A      1.640401   575A      1.644144  
     576A      1.645640   577A      1.717728   578A      1.717816  
     579A      1.718207   580A      1.798143   581A      1.798432  
     582A      1.903698   583A      1.913353   584A      1.913790  
     585A      1.924348   586A      1.926812   587A      1.927424  
     588A      1.979838   589A      1.980268   590A      1.997784  
     591A      1.999439   592A      2.001854   593A      2.026714  
     594A      2.033790   595A      2.034843   596A      2.049901  
     597A      2.223685  

    Final Occupation by Irrep:
              A 
    DOCC [   203 ]

  @RKS Final Energy: -2615.49007522938155

   => Energetics <=

    Nuclear Repulsion Energy =           6211.4394366162596270
    One-Electron Energy =              -15899.3466850581480685
    Two-Electron Energy =                7367.4075541067722952
    DFT Exchange-Correlation Energy =    -294.9903808942651722
    Empirical Dispersion Energy =           0.0000000000000000
    VV10 Nonlocal Energy =                  0.0000000000000000
    Total Energy =                      -2615.4900752293815458

Computation Completed


Properties will be evaluated at   0.000000,   0.000000,   0.000000 [a0]

Properties computed using the SCF density matrix

  Nuclear Dipole Moment: [e a0]
     X:    -3.1046      Y:     0.3864      Z:     0.5834

  Electronic Dipole Moment: [e a0]
     X:     2.5277      Y:    -0.3650      Z:    -0.5247

  Dipole Moment: [e a0]
     X:    -0.5769      Y:     0.0214      Z:     0.0587     Total:     0.5803

  Dipole Moment: [D]
     X:    -1.4663      Y:     0.0543      Z:     0.1492     Total:     1.4749


*** tstop() called on Rubens-MacBook-Pro-2.local at Thu Jan 28 22:28:08 2021
Module time:
	user time   =    7426.69 seconds =     123.78 minutes
	system time =     221.86 seconds =       3.70 minutes
	total time  =       1359 seconds =      22.65 minutes
Total time:
	user time   =    7426.69 seconds =     123.78 minutes
	system time =     221.86 seconds =       3.70 minutes
	total time  =       1359 seconds =      22.65 minutes

    Psi4 stopped on: Thursday, 28 January 2021 10:28PM
    Psi4 wall time for execution: 0:22:41.10

*** Psi4 exiting successfully. Buy a developer a beer!
