
    -----------------------------------------------------------------------
          Psi4: An Open-Source Ab Initio Electronic Structure Package
                               Psi4 1.3.2 release

                         Git: Rev {HEAD} ecbda83 


    R. M. Parrish, L. A. Burns, D. G. A. Smith, A. C. Simmonett,
    A. E. DePrince III, E. G. Hohenstein, U. Bozkaya, A. Yu. Sokolov,
    R. Di Remigio, R. M. Richard, J. F. Gonthier, A. M. James,
    H. R. McAlexander, A. Kumar, M. Saitow, X. Wang, B. P. Pritchard,
    P. Verma, H. F. Schaefer III, K. Patkowski, R. A. King, E. F. Valeev,
    F. A. Evangelista, J. M. Turney, T. D. Crawford, and C. D. Sherrill,
    J. Chem. Theory Comput. 13(7) pp 3185--3197 (2017).
    (doi: 10.1021/acs.jctc.7b00174)


                         Additional Contributions by
    P. Kraus, H. Kruse, M. H. Lechner, M. C. Schieber, R. A. Shaw,
    A. Alenaizan, R. Galvelis, Z. L. Glick, S. Lehtola, and J. P. Misiewicz

    -----------------------------------------------------------------------


    Psi4 started on: Sunday, 24 January 2021 12:02AM

    Process ID: 56159
    Host:       Rubens-MacBook-Pro-2.local
    PSIDATADIR: /opt/anaconda3/envs/p4env/share/psi4
    Memory:     500.0 MiB
    Threads:    8
    
  ==> Input File <==

--------------------------------------------------------------------------
memory 8gb
molecule {
    symmetry c1 # this is important; some perturbations will break symmetry
#    no_reorient
N         0.67837695692501   -1.12553075238253   -0.75351316313868
C         0.69076487457325   -1.13302402016790    0.57633459963242
N         0.67260567310928    1.22086836115632   -0.65682280501564
C         0.64935588359467    0.13784642758504   -2.78983780738900
H         0.29471601990447   -1.86773440551920   -5.48904971795259
C         0.67692044571248    1.12004797568487    0.66890447780177
C         0.68222365779269   -2.42789482160004    1.25669809365942
H         0.91760113830125   -3.54920452637610   -0.54476403827043
C         0.67440674735975    0.07325617865018   -1.32854603334757
N         0.69244161019693   -0.03518269492719    1.32661445757312
C         0.60442680151043   -4.88703305551082    2.55472370980229
C         0.64362149236062    2.35569091540058    1.45125853259120
H        -0.68035277705181   -5.91413228739435  -17.11822418807566
C         0.47415009930391   -1.02355589086224   -3.54002953503832
C         0.47492929465219    0.40186254208986   -7.05439167097727
C         0.79576038269527    1.36251136883689   -3.43931433044230
H        -1.11152587611065   -6.68002871095919  -15.58837472261220
C         0.41254587978984   -0.95781152652674   -4.91739069111413
C         0.53605540094716    0.26854859327543   -5.56600892817356
C         0.74988164059265    1.42229462163138   -4.81616263876421
H         0.56517051767323   -6.23990853740806  -15.91183649695279
H         0.87333357940579    2.35955093088178   -5.33745965591045
C         0.71068458643471    3.48251778108562    3.57013507822051
C         0.77072688055817    2.31514529664950    2.83874889500269
H         0.38164677947796   -1.96633982212931   -3.02403951690872
C         0.45370291487781    3.57966535182779    0.81262013135526
H         0.91104736276469    1.36098021258213    3.32133744451240
H         0.33953063274946    3.59360585715002   -0.25995199098491
C         0.39854488128015    4.74634858932645    1.54773630170370
H         0.43079909318018   -3.73596164256816    4.36439790539394
C         0.43306421859068    5.93234078696430    3.78777938895172
C         0.53473929828947    4.70902075544317    2.93361538084709
H         0.79201222561624    3.47036304583502    4.64655833891127
C         0.79979888990050   -3.60883065278690    0.52559326833175
C         0.55278212081227   -2.48569503425950    2.64331896448245
H         0.48141173708015   -1.56281114962339    3.19710641322251
C         0.51029003411549   -3.70572859204108    3.28672988206528
C         0.77048411361705   -4.82601378579519    1.17344668340093
H         0.87159513360088   -5.75088518064041    0.62586641374766
C         0.56568608004828   -6.23550870963300    3.20054606650618
N        -0.29364140521660   -6.32972543958278    4.24160447145836
O         1.23139857989543   -7.17000840888847    2.80070465087931
C        -0.11882256211709   -7.32735839980108    6.48454438640327
H         0.19104457961401   -8.28664120718979    4.56598693456909
C        -0.46819922005534   -7.53833950044789    5.01145866011375
H        -1.50500960662541   -7.88359921149536    4.92208507725404
H        -0.84659891523411   -5.52940967014229    4.50306326868416
H         0.92137622862563   -7.00517711197139    6.56293437302730
H        -0.74845395681530   -6.53321156809437    6.89559986010118
C        -0.32428875875556   -8.60615606288218    7.29157388916726
H         0.31273547070356   -9.39385430920970    6.88451770065597
C        -0.00466835049999   -8.41087983066729    8.77166085491913
H        -1.36160552048056   -8.93376728325188    7.18807520058424
H         1.03611701496053   -8.09742909826299    8.87919557202680
H        -0.63304180465419   -7.61347798971352    9.17597944375297
C        -0.23408949719953   -9.68861032417246    9.57526818038335
H         0.39518097809215  -10.48554812052960    9.17237243498884
C         0.07685601433899   -9.50078494940863   11.05791335600594
H        -1.27471383705374  -10.00253319374328    9.46266563003929
H         1.12086534749753   -9.20000387517037   11.17301405017979
H        -0.54421583690581   -8.69569952380567   11.45818215269649
C        -0.17197389585863  -10.77443803582289   11.86226247477526
H         0.44911724786568  -11.57961450456197   11.46318798849251
C         0.13807441472171  -10.58132941539649   13.34148036548263
H        -1.21598888789697  -11.07493655369437   11.74670893959790
H         1.18060977594866  -10.30279585523278   13.47936019051316
H        -0.48400898650558   -9.79396900144758   13.76186229613738
H        -0.04828443081499  -11.49842928672689   13.89545956296594
O        -0.03528418874779    5.89875483837410    4.90910334436289
N         0.92094136599648    7.06256760750474    3.22611424834560
H         1.30539140972907    7.03001580616161    2.29607605777420
C         0.80180406185716    8.35747010194355    3.85378072998651
H         1.77871700737541    8.85160358288866    3.85722864936317
C        -0.23075945113550    9.23403971281323    3.14252094647761
H         0.49127735395052    8.17486686389101    4.88493635645147
H         0.07732826978733    9.39071841260244    2.10507129194798
H        -1.18778664336024    8.70820362072938    3.13247410259274
C        -0.39879378614049   10.58393410764433    3.83361628503207
H         0.55692617135305   11.11334894178203    3.83415975140428
C        -1.45626835777743   11.44473006406290    3.14657850828128
H        -0.68710761464080   10.42000106322476    4.87382974603021
H        -1.17014403251055   11.60845664701409    2.10473258293028
H        -2.40891813812136   10.91009376146078    3.14662822896108
C        -1.63794699202458   12.79412102405088    3.83709299359522
H        -0.69331406866977   13.34277450807736    3.81457961080633
C        -2.72667685514620   13.63269421761466    3.17219226539464
H        -1.89866379099149   12.63017639247007    4.88523873493645
H        -2.47245598824877   13.78716137553069    2.12071370389069
H        -3.67214540627658   13.08601356839778    3.20555491727298
C        -2.90698988670151   14.98865093514615    3.85006855860372
H        -1.96640426440130   15.54249837203784    3.80506176549341
C        -4.00973988668701   15.80808573695787    3.19107930064411
H        -3.14959460161542   14.83513401158219    4.90406536125711
H        -3.77943258049172   15.98391068970462    2.14241246568181
H        -4.96059038470799   15.28248906766273    3.24798684863659
H        -4.11990756576968   16.77095665159586    3.68443163164238
N        -0.43008261216824   -0.40902306137095   -7.64992994176059
C        -0.64855775936616   -0.42773383301277   -9.07684269614584
O         1.16129903974134    1.19562994667880   -7.66689627988361
H        -0.99904154989536   -1.01831710873157   -7.08454852520853
H         0.03309207912359    0.31174263795079   -9.50301339822568
C        -0.38083843909483   -1.80798454799291   -9.67618232368173
H        -1.67937618477457   -0.12333528922325   -9.29390107561915
H         0.65370123967883   -2.09177121383081   -9.47360338223474
H        -1.03155940764037   -2.54407094637150   -9.19585508493260
C        -0.63164002222688   -1.81431878915614  -11.18155629299631
H         0.02500402087749   -1.08346184485191  -11.65764681519531
C        -0.39135845580855   -3.18900725255412  -11.80061713688575
H        -1.66241806866690   -1.50783552662425  -11.37560909926182
H         0.64194057431829   -3.49251912151700  -11.61837973141905
H        -1.04113402434749   -3.92287031366755  -11.31750801251826
C        -0.66124552164814   -3.18968054166799  -13.30336707825633
H        -0.01292525003272   -2.45474771839464  -13.78605166996257
C        -0.42395920756203   -4.56091149801981  -13.93072071255968
H        -1.69505585612899   -2.88499481871300  -13.48371780048168
H         0.61261283569718   -4.86139908000590  -13.76070817884877
H        -1.06536115093580   -5.29805538603840  -13.44150773684126
C        -0.70920543854523   -4.56330178220888  -15.43061810604118
H        -0.06899228491327   -3.82588951198541  -15.92018445653556
C        -0.46938025835568   -5.93386416546403  -16.05155478852815
H        -1.74623764023627   -4.26442560929843  -15.60047481320847
H         0.94879726042656    2.25074152805466   -2.84711164773113
H         0.21443512272856    5.68217353839362    1.03881394885592

}
set {
    basis     6-31g
    d_convergence   10
    reference rhf
    scf_type direct
}
method = 'B3LYP'
E, wfn = energy(method, return_wfn=True)
molden(wfn, 'HS_4.molden')
--------------------------------------------------------------------------

  Memory set to   7.451 GiB by Python driver.

*** tstart() called on Rubens-MacBook-Pro-2.local
*** at Sun Jan 24 00:02:22 2021

   => Loading Basis Set <=

    Name: 6-31G
    Role: ORBITAL
    Keyword: BASIS
    atoms 1, 3, 10, 41, 70, 97                                                                                                                                                                                   entry N          line   102 file /opt/anaconda3/envs/p4env/share/psi4/basis/6-31g.gbs 
    atoms 2, 4, 6-7, 9, 11-12, 14-16, 18-20, 23-24, 26, 29, 31-32, 34-35, 37-38, 40, 43, 45, 50, 52, 56, 58, 62, 64, 72, 74, 78, 80, 84, 86, 90, 92, 98, 102, 106, 108, 112, 114, 118, 120                       entry C          line    87 file /opt/anaconda3/envs/p4env/share/psi4/basis/6-31g.gbs 
    atoms 5, 8, 13, 17, 21-22, 25, 27-28, 30, 33, 36, 39, 44, 46-49, 51, 53-55, 57, 59-61, 63, 65-68, 71, 73, 75-77, 79, 81-83, 85, 87-89, 91, 93-96, 100-101, 103-105, 107, 109-111, 113, 115-117, 119, 121-123 entry H          line    26 file /opt/anaconda3/envs/p4env/share/psi4/basis/6-31g.gbs 
    atoms 42, 69, 99                                                                                                                                                                                             entry O          line   117 file /opt/anaconda3/envs/p4env/share/psi4/basis/6-31g.gbs 


         ---------------------------------------------------------
                                   SCF
               by Justin Turney, Rob Parrish, Andy Simmonett
                          and Daniel G. A. Smith
                              RKS Reference
                        8 Threads,   7629 MiB Core
         ---------------------------------------------------------

  ==> Geometry <==

    Molecular point group: c1
    Full point group: C1

    Geometry (in Angstrom), charge = 0, multiplicity = 1:

       Center              X                  Y                   Z               Mass       
    ------------   -----------------  -----------------  -----------------  -----------------
         N            0.686222871631    -1.121190355680    -0.757322264276    14.003074004430
         C            0.698610789280    -1.128683623466     0.572525498495    12.000000000000
         N            0.680451587816     1.225208757858    -0.660631906153    14.003074004430
         C            0.657201798301     0.142186824287    -2.793646908527    12.000000000000
         H            0.302561934611    -1.863394008817    -5.492858819090     1.007825032230
         C            0.684766360419     1.124388372387     0.665095376664    12.000000000000
         C            0.690069572499    -2.423554424898     1.252888992522    12.000000000000
         H            0.925447053008    -3.544864129674    -0.548573139408     1.007825032230
         C            0.682252662066     0.077596575352    -1.332355134485    12.000000000000
         N            0.700287524903    -0.030842298225     1.322805356436    14.003074004430
         C            0.612272716217    -4.882692658809     2.550914608665    12.000000000000
         C            0.651467407067     2.360031312103     1.447449431454    12.000000000000
         H           -0.672506862345    -5.909791890692   -17.122033289213     1.007825032230
         C            0.481996014010    -1.019215494160    -3.543838636176    12.000000000000
         C            0.482775209359     0.406202938792    -7.058200772115    12.000000000000
         C            0.803606297402     1.366851765539    -3.443123431580    12.000000000000
         H           -1.103679961404    -6.675688314257   -15.592183823750     1.007825032230
         C            0.420391794496    -0.953471129825    -4.921199792252    12.000000000000
         C            0.543901315653     0.272888989978    -5.569818029311    12.000000000000
         C            0.757727555299     1.426635018333    -4.819971739902    12.000000000000
         H            0.573016432380    -6.235568140706   -15.915645598090     1.007825032230
         H            0.881179494112     2.363891327584    -5.341268757048     1.007825032230
         C            0.718530501141     3.486858177788     3.566325977083    12.000000000000
         C            0.778572795264     2.319485693352     2.834939793865    12.000000000000
         H            0.389492694184    -1.961999425427    -3.027848618046     1.007825032230
         C            0.461548829584     3.584005748530     0.808811030218    12.000000000000
         H            0.918893277471     1.365320609284     3.317528343375     1.007825032230
         H            0.347376547456     3.597946253852    -0.263761092122     1.007825032230
         C            0.406390795986     4.750688986029     1.543927200566    12.000000000000
         H            0.438645007886    -3.731621245866     4.360588804256     1.007825032230
         C            0.440910133297     5.936681183666     3.783970287814    12.000000000000
         C            0.542585212996     4.713361152145     2.929806279710    12.000000000000
         H            0.799858140323     3.474703442537     4.642749237774     1.007825032230
         C            0.807644804607    -3.604490256085     0.521784167194    12.000000000000
         C            0.560628035519    -2.481354637557     2.639509863345    12.000000000000
         H            0.489257651786    -1.558470752921     3.193297312085     1.007825032230
         C            0.518135948822    -3.701388195339     3.282920780928    12.000000000000
         C            0.778330028323    -4.821673389093     1.169637582263    12.000000000000
         H            0.879441048307    -5.746544783938     0.622057312610     1.007825032230
         C            0.573531994755    -6.231168312931     3.196736965369    12.000000000000
         N           -0.285795490510    -6.325385042881     4.237795370321    14.003074004430
         O            1.239244494602    -7.165668012186     2.796895549742    15.994914619570
         C           -0.110976647411    -7.323018003099     6.480735285266    12.000000000000
         H            0.198890494320    -8.282300810488     4.562177833432     1.007825032230
         C           -0.460353305349    -7.533999103746     5.007649558976    12.000000000000
         H           -1.497163691919    -7.879258814793     4.918275976117     1.007825032230
         H           -0.838753000528    -5.525069273440     4.499254167547     1.007825032230
         H            0.929222143332    -7.000836715269     6.559125271890     1.007825032230
         H           -0.740608042109    -6.528871171392     6.891790758964     1.007825032230
         C           -0.316442844049    -8.601815666180     7.287764788030    12.000000000000
         H            0.320581385410    -9.389513912508     6.880708599518     1.007825032230
         C            0.003177564206    -8.406539433965     8.767851753782    12.000000000000
         H           -1.353759605774    -8.929426886550     7.184266099447     1.007825032230
         H            1.043962929667    -8.093088701561     8.875386470889     1.007825032230
         H           -0.625195889948    -7.609137593011     9.172170342615     1.007825032230
         C           -0.226243582493    -9.684269927470     9.571459079246    12.000000000000
         H            0.403026892798   -10.481207723828     9.168563333851     1.007825032230
         C            0.084701929045    -9.496444552707    11.054104254868    12.000000000000
         H           -1.266867922347    -9.998192797041     9.458856528902     1.007825032230
         H            1.128711262204    -9.195663478468    11.169204949042     1.007825032230
         H           -0.536369922199    -8.691359127104    11.454373051559     1.007825032230
         C           -0.164127981152   -10.770097639121    11.858453373638    12.000000000000
         H            0.456963162572   -11.575274107860    11.459378887355     1.007825032230
         C            0.145920329428   -10.576989018694    13.337671264345    12.000000000000
         H           -1.208142973191   -11.070596156992    11.742899838460     1.007825032230
         H            1.188455690655   -10.298455458531    13.475551089376     1.007825032230
         H           -0.476163071799    -9.789628604745    13.758053195000     1.007825032230
         H           -0.040438516109   -11.494088890025    13.891650461828     1.007825032230
         O           -0.027438274041     5.903095235076     4.905294243225    15.994914619570
         N            0.928787280703     7.066908004207     3.222305147208    14.003074004430
         H            1.313237324435     7.034356202864     2.292266956637     1.007825032230
         C            0.809649976563     8.361810498646     3.849971628849    12.000000000000
         H            1.786562922082     8.855943979591     3.853419548226     1.007825032230
         C           -0.222913536429     9.238380109515     3.138711845340    12.000000000000
         H            0.499123268657     8.179207260593     4.881127255314     1.007825032230
         H            0.085174184494     9.395058809305     2.101262190810     1.007825032230
         H           -1.179940728654     8.712544017431     3.128665001455     1.007825032230
         C           -0.390947871434    10.588274504346     3.829807183895    12.000000000000
         H            0.564772086059    11.117689338484     3.830350650267     1.007825032230
         C           -1.448422443071    11.449070460765     3.142769407144    12.000000000000
         H           -0.679261699934    10.424341459927     4.870020644893     1.007825032230
         H           -1.162298117804    11.612797043716     2.100923481793     1.007825032230
         H           -2.401072223415    10.914434158163     3.142819127824     1.007825032230
         C           -1.630101077318    12.798461420753     3.833283892458    12.000000000000
         H           -0.685468153963    13.347114904779     3.810770509669     1.007825032230
         C           -2.718830940440    13.637034614317     3.168383164257    12.000000000000
         H           -1.890817876285    12.634516789172     4.881429633799     1.007825032230
         H           -2.464610073542    13.791501772233     2.116904602753     1.007825032230
         H           -3.664299491570    13.090353965100     3.201745816135     1.007825032230
         C           -2.899143971995    14.992991331848     3.846259457466    12.000000000000
         H           -1.958558349695    15.546838768740     3.801252664356     1.007825032230
         C           -4.001893971981    15.812426133660     3.187270199507    12.000000000000
         H           -3.141748686909    14.839474408284     4.900256260120     1.007825032230
         H           -3.771586665785    15.988251086407     2.138603364544     1.007825032230
         H           -4.952744470002    15.286829464365     3.244177747499     1.007825032230
         H           -4.112061651063    16.775297048298     3.680622530505     1.007825032230
         N           -0.422236697462    -0.404682664669    -7.653739042898    14.003074004430
         C           -0.640711844660    -0.423393436311    -9.080651797283    12.000000000000
         O            1.169144954448     1.199970343381    -7.670705381021    15.994914619570
         H           -0.991195635189    -1.013976712029    -7.088357626346     1.007825032230
         H            0.040937993830     0.316083034653    -9.506822499363     1.007825032230
         C           -0.372992524389    -1.803644151291    -9.679991424819    12.000000000000
         H           -1.671530270068    -0.118994892521    -9.297710176757     1.007825032230
         H            0.661547154385    -2.087430817129    -9.477412483372     1.007825032230
         H           -1.023713492934    -2.539730549669    -9.199664186070     1.007825032230
         C           -0.623794107521    -1.809978392454   -11.185365394134    12.000000000000
         H            0.032849935584    -1.079121448150   -11.661455916333     1.007825032230
         C           -0.383512541102    -3.184666855852   -11.804426238023    12.000000000000
         H           -1.654572153961    -1.503495129922   -11.379418200399     1.007825032230
         H            0.649786489025    -3.488178724815   -11.622188832557     1.007825032230
         H           -1.033288109641    -3.918529916965   -11.321317113656     1.007825032230
         C           -0.653399606942    -3.185340144966   -13.307176179394    12.000000000000
         H           -0.005079335326    -2.450407321693   -13.789860771100     1.007825032230
         C           -0.416113292856    -4.556571101318   -13.934529813697    12.000000000000
         H           -1.687209941423    -2.880654422011   -13.487526901619     1.007825032230
         H            0.620458750403    -4.857058683304   -13.764517279986     1.007825032230
         H           -1.057515236229    -5.293714989336   -13.445316837979     1.007825032230
         C           -0.701359523839    -4.558961385507   -15.434427207179    12.000000000000
         H           -0.061146370207    -3.821549115283   -15.923993557673     1.007825032230
         C           -0.461534343649    -5.929523768762   -16.055363889666    12.000000000000
         H           -1.738391725530    -4.260085212596   -15.604283914346     1.007825032230
         H            0.956643175133     2.255081924757    -2.850920748869     1.007825032230
         H            0.222281037435     5.686513935096     1.035004847718     1.007825032230

  Running in c1 symmetry.

  Rotational constants: A =      0.00048  B =      0.00045  C =      0.00024 [cm^-1]
  Rotational constants: A =     14.37352  B =     13.63930  C =      7.13042 [MHz]
  Nuclear repulsion = 6343.064543233753284

  Charge       = 0
  Multiplicity = 1
  Electrons    = 420
  Nalpha       = 210
  Nbeta        = 210

  ==> Algorithm <==

  SCF Algorithm Type is DIRECT.
  DIIS enabled.
  MOM disabled.
  Fractional occupation disabled.
  Guess Type is SAD.
  Energy threshold   = 1.00e-06
  Density threshold  = 1.00e-10
  Integral threshold = 0.00e+00

  ==> Primary Basis <==

  Basis Set: 6-31G
    Blend: 6-31G
    Number of shells: 417
    Number of basis function: 645
    Number of Cartesian functions: 645
    Spherical Harmonics?: false
    Max angular momentum: 1

  ==> DFT Potential <==

   => Composite Functional: B3LYP <= 

    B3LYP Hyb-GGA Exchange-Correlation Functional

    P. J. Stephens, F. J. Devlin, C. F. Chabalowski, and M. J. Frisch, J. Phys. Chem. 98, 11623 (1994)

    Deriv               =              1
    GGA                 =           TRUE
    Meta                =          FALSE

    Exchange Hybrid     =           TRUE
    MP2 Hybrid          =          FALSE

   => Exchange Functionals <=

    0.0800   Slater exchange
    0.7200         Becke 88

   => Exact (HF) Exchange <=

    0.2000               HF 

   => Correlation Functionals <=

    0.1900   Vosko, Wilk & Nusair (VWN5_RPA)
    0.8100   Lee, Yang & Parr

   => Molecular Quadrature <=

    Radial Scheme          =       TREUTLER
    Pruning Scheme         =           FLAT
    Nuclear Scheme         =       TREUTLER

    BS radius alpha        =              1
    Pruning alpha          =              1
    Radial Points          =             75
    Spherical Points       =            302
    Total Points           =        2738403
    Total Blocks           =          19828
    Max Points             =            256
    Max Functions          =            221

   => Loading Basis Set <=

    Name: (6-31G AUX)
    Role: JKFIT
    Keyword: DF_BASIS_SCF
    atoms 1, 3, 10, 41, 70, 97                                                                                                                                                                                   entry N          line   171 file /opt/anaconda3/envs/p4env/share/psi4/basis/cc-pvdz-jkfit.gbs 
    atoms 2, 4, 6-7, 9, 11-12, 14-16, 18-20, 23-24, 26, 29, 31-32, 34-35, 37-38, 40, 43, 45, 50, 52, 56, 58, 62, 64, 72, 74, 78, 80, 84, 86, 90, 92, 98, 102, 106, 108, 112, 114, 118, 120                       entry C          line   121 file /opt/anaconda3/envs/p4env/share/psi4/basis/cc-pvdz-jkfit.gbs 
    atoms 5, 8, 13, 17, 21-22, 25, 27-28, 30, 33, 36, 39, 44, 46-49, 51, 53-55, 57, 59-61, 63, 65-68, 71, 73, 75-77, 79, 81-83, 85, 87-89, 91, 93-96, 100-101, 103-105, 107, 109-111, 113, 115-117, 119, 121-123 entry H          line    51 file /opt/anaconda3/envs/p4env/share/psi4/basis/cc-pvdz-jkfit.gbs 
    atoms 42, 69, 99                                                                                                                                                                                             entry O          line   221 file /opt/anaconda3/envs/p4env/share/psi4/basis/cc-pvdz-jkfit.gbs 

  Starting with a DF guess...

  ==> Pre-Iterations <==

   -------------------------------------------------------
    Irrep   Nso     Nmo     Nalpha   Nbeta   Ndocc  Nsocc
   -------------------------------------------------------
     A        645     645       0       0       0       0
   -------------------------------------------------------
    Total     645     645     210     210     210       0
   -------------------------------------------------------

  ==> Integral Setup <==

  ==> DiskDFJK: Density-Fitted J/K Matrices <==

    J tasked:                  Yes
    K tasked:                  Yes
    wK tasked:                  No
    OpenMP threads:              8
    Integrals threads:           8
    Memory [MiB]:             3639
    Algorithm:                Disk
    Integral Cache:           NONE
    Schwarz Cutoff:          1E-12
    Fitting Condition:       1E-10

   => Auxiliary Basis Set <=

  Basis Set: (6-31G AUX)
    Blend: CC-PVDZ-JKFIT
    Number of shells: 1962
    Number of basis function: 6267
    Number of Cartesian functions: 6267
    Spherical Harmonics?: false
    Max angular momentum: 3

  Cached 25.0% of DFT collocation blocks in 2.157 [GiB].

  Minimum eigenvalue in the overlap matrix is 4.7402885756E-04.
  Using Symmetric Orthogonalization.

  SCF Guess: Superposition of Atomic Densities via on-the-fly atomic UHF.

  ==> Iterations <==

                           Total Energy        Delta E     RMS |[F,P]|

   @DF-RKS iter SAD: -2420.28182970536318   -2.42028e+03   0.00000e+00 
   @DF-RKS iter   1: -2419.30889543339117    9.72934e-01   3.81553e-03 DIIS
   @DF-RKS iter   2: -2418.18587564934660    1.12302e+00   4.54515e-03 DIIS
   @DF-RKS iter   3: -2422.31997508974700   -4.13410e+00   1.05307e-03 DIIS
   @DF-RKS iter   4: -2422.50065768992908   -1.80683e-01   3.11454e-04 DIIS
   @DF-RKS iter   5: -2422.51605757768584   -1.53999e-02   9.80924e-05 DIIS
   @DF-RKS iter   6: -2422.51796323393501   -1.90566e-03   2.75628e-05 DIIS
   @DF-RKS iter   7: -2422.51811281945083   -1.49586e-04   5.73685e-06 DIIS
   @DF-RKS iter   8: -2422.51811835756507   -5.53811e-06   2.64413e-06 DIIS
   @DF-RKS iter   9: -2422.51811983020434   -1.47264e-06   5.63701e-07 DIIS
   @DF-RKS iter  10: -2422.51811988368809   -5.34837e-08   3.13602e-07 DIIS
   @DF-RKS iter  11: -2422.51811990526585   -2.15778e-08   6.36191e-08 DIIS
   @DF-RKS iter  12: -2422.51811990594888   -6.83031e-10   3.26398e-08 DIIS
   @DF-RKS iter  13: -2422.51811990614306   -1.94177e-10   1.32213e-08 DIIS
   @DF-RKS iter  14: -2422.51811990617989   -3.68345e-11   2.46042e-09 DIIS
   @DF-RKS iter  15: -2422.51811990617853    1.36424e-12   1.54899e-09 DIIS
   @DF-RKS iter  16: -2422.51811990618307   -4.54747e-12   6.91655e-10 DIIS
   @DF-RKS iter  17: -2422.51811990618080    2.27374e-12   2.32984e-10 DIIS
   @DF-RKS iter  18: -2422.51811990617762    3.18323e-12   6.45991e-11 DIIS

  DF guess converged.

  ==> DirectJK: Integral-Direct J/K Matrices <==

    J tasked:                  Yes
    K tasked:                  Yes
    wK tasked:                  No
    Integrals threads:           8
    Schwarz Cutoff:          1E-12

   @RKS iter  19: -2422.51823721650953   -2.42252e+03   4.15328e-07 DIIS
   @RKS iter  20: -2422.51823727603823   -5.95287e-08   1.11099e-07 DIIS
   @RKS iter  21: -2422.51823727577221    2.66027e-10   1.24732e-07 DIIS
   @RKS iter  22: -2422.51823727868896   -2.91675e-09   3.84015e-08 DIIS
   @RKS iter  23: -2422.51823727891997   -2.31012e-10   1.05851e-08 DIIS
   @RKS iter  24: -2422.51823727894225   -2.22826e-11   2.87756e-09 DIIS
   @RKS iter  25: -2422.51823727894180    4.54747e-13   8.13459e-10 DIIS
   @RKS iter  26: -2422.51823727894407   -2.27374e-12   2.21418e-10 DIIS
   @RKS iter  27: -2422.51823727893907    5.00222e-12   1.09504e-10 DIIS
   @RKS iter  28: -2422.51823727893498    4.09273e-12   2.71711e-11 DIIS
  Energy and wave function converged.


  ==> Post-Iterations <==

    Orbital Energies [Eh]
    ---------------------

    Doubly Occupied:                                                      

       1A    -19.111280     2A    -19.111266     3A    -19.110885  
       4A    -14.356772     5A    -14.356610     6A    -14.356326  
       7A    -14.353453     8A    -14.353287     9A    -14.353222  
      10A    -10.290621    11A    -10.290615    12A    -10.290232  
      13A    -10.287606    14A    -10.287578    15A    -10.287544  
      16A    -10.214058    17A    -10.213947    18A    -10.213775  
      19A    -10.207857    20A    -10.207841    21A    -10.207550  
      22A    -10.206800    23A    -10.206732    24A    -10.206459  
      25A    -10.202682    26A    -10.202116    27A    -10.201710  
      28A    -10.198360    29A    -10.198218    30A    -10.197814  
      31A    -10.195988    32A    -10.195844    33A    -10.195828  
      34A    -10.194610    35A    -10.194351    36A    -10.194104  
      37A    -10.180687    38A    -10.180465    39A    -10.179456  
      40A    -10.176241    41A    -10.175982    42A    -10.175403  
      43A    -10.172650    44A    -10.172396    45A    -10.172020  
      46A    -10.169951    47A    -10.169853    48A    -10.169725  
      49A    -10.169641    50A    -10.169598    51A    -10.169331  
      52A    -10.168524    53A    -10.168282    54A    -10.168157  
      55A    -10.161868    56A    -10.161683    57A    -10.161651  
      58A     -1.069651    59A     -1.060573    60A     -1.060553  
      61A     -1.060111    62A     -0.943526    63A     -0.943496  
      64A     -0.936923    65A     -0.936894    66A     -0.936624  
      67A     -0.881076    68A     -0.879947    69A     -0.879719  
      70A     -0.820006    71A     -0.819734    72A     -0.819250  
      73A     -0.801448    74A     -0.801242    75A     -0.798300  
      76A     -0.790742    77A     -0.790525    78A     -0.784762  
      79A     -0.767575    80A     -0.767140    81A     -0.766962  
      82A     -0.756233    83A     -0.755865    84A     -0.754339  
      85A     -0.719927    86A     -0.719816    87A     -0.711127  
      88A     -0.698729    89A     -0.698590    90A     -0.669991  
      91A     -0.658066    92A     -0.657955    93A     -0.644477  
      94A     -0.635596    95A     -0.627680    96A     -0.627355  
      97A     -0.613764    98A     -0.613462    99A     -0.604885  
     100A     -0.603044   101A     -0.602056   102A     -0.598012  
     103A     -0.592205   104A     -0.591938   105A     -0.582958  
     106A     -0.582745   107A     -0.582614   108A     -0.577287  
     109A     -0.577081   110A     -0.577017   111A     -0.570788  
     112A     -0.562613   113A     -0.552607   114A     -0.551986  
     115A     -0.536488   116A     -0.500736   117A     -0.500522  
     118A     -0.493624   119A     -0.492279   120A     -0.491839  
     121A     -0.485901   122A     -0.480701   123A     -0.480487  
     124A     -0.479421   125A     -0.473068   126A     -0.472470  
     127A     -0.471532   128A     -0.466867   129A     -0.466519  
     130A     -0.465066   131A     -0.458803   132A     -0.451485  
     133A     -0.451260   134A     -0.444186   135A     -0.443853  
     136A     -0.442965   137A     -0.438772   138A     -0.438527  
     139A     -0.437244   140A     -0.434843   141A     -0.432795  
     142A     -0.432416   143A     -0.428568   144A     -0.427758  
     145A     -0.427408   146A     -0.418546   147A     -0.414792  
     148A     -0.413683   149A     -0.413455   150A     -0.411160  
     151A     -0.410914   152A     -0.401530   153A     -0.400941  
     154A     -0.395698   155A     -0.394177   156A     -0.393159  
     157A     -0.392075   158A     -0.390500   159A     -0.388681  
     160A     -0.383171   161A     -0.378163   162A     -0.376054  
     163A     -0.373920   164A     -0.370167   165A     -0.369246  
     166A     -0.369093   167A     -0.366168   168A     -0.364402  
     169A     -0.364167   170A     -0.363884   171A     -0.360525  
     172A     -0.360252   173A     -0.358402   174A     -0.356632  
     175A     -0.355916   176A     -0.352504   177A     -0.343541  
     178A     -0.343127   179A     -0.340768   180A     -0.340473  
     181A     -0.340177   182A     -0.338884   183A     -0.338642  
     184A     -0.338231   185A     -0.329208   186A     -0.328966  
     187A     -0.328549   188A     -0.325981   189A     -0.325740  
     190A     -0.325536   191A     -0.323408   192A     -0.323172  
     193A     -0.323022   194A     -0.304292   195A     -0.304006  
     196A     -0.303798   197A     -0.271425   198A     -0.270965  
     199A     -0.268858   200A     -0.268732   201A     -0.268306  
     202A     -0.266637   203A     -0.263021   204A     -0.262652  
     205A     -0.250327   206A     -0.249952   207A     -0.249599  
     208A     -0.248663   209A     -0.247846   210A     -0.247473  

    Virtual:                                                              

     211A     -0.083214   212A     -0.082867   213A     -0.040112  
     214A     -0.011313   215A     -0.010942   216A     -0.009907  
     217A      0.004770   218A      0.005654   219A      0.046355  
     220A      0.068723   221A      0.069786   222A      0.073691  
     223A      0.074937   224A      0.075716   225A      0.085214  
     226A      0.085553   227A      0.085689   228A      0.094706  
     229A      0.096931   230A      0.097134   231A      0.099086  
     232A      0.107631   233A      0.108269   234A      0.111171  
     235A      0.113504   236A      0.114619   237A      0.117009  
     238A      0.118407   239A      0.119300   240A      0.120504  
     241A      0.121759   242A      0.121959   243A      0.122309  
     244A      0.133639   245A      0.134236   246A      0.137173  
     247A      0.143819   248A      0.144578   249A      0.145983  
     250A      0.147016   251A      0.147586   252A      0.153529  
     253A      0.154557   254A      0.155108   255A      0.159631  
     256A      0.162856   257A      0.166551   258A      0.168674  
     259A      0.170666   260A      0.171035   261A      0.173853  
     262A      0.174685   263A      0.176006   264A      0.177600  
     265A      0.179245   266A      0.179724   267A      0.187070  
     268A      0.188511   269A      0.188961   270A      0.189245  
     271A      0.193588   272A      0.194138   273A      0.194774  
     274A      0.194913   275A      0.195006   276A      0.195943  
     277A      0.198762   278A      0.198983   279A      0.199171  
     280A      0.199410   281A      0.199585   282A      0.199924  
     283A      0.210556   284A      0.211505   285A      0.211871  
     286A      0.214270   287A      0.214505   288A      0.214688  
     289A      0.216962   290A      0.217362   291A      0.218168  
     292A      0.221554   293A      0.221739   294A      0.222416  
     295A      0.224011   296A      0.224269   297A      0.224907  
     298A      0.229686   299A      0.230247   300A      0.241239  
     301A      0.241330   302A      0.245342   303A      0.249090  
     304A      0.249514   305A      0.250150   306A      0.253030  
     307A      0.253206   308A      0.253661   309A      0.256434  
     310A      0.259375   311A      0.259690   312A      0.260138  
     313A      0.272934   314A      0.273077   315A      0.273540  
     316A      0.287987   317A      0.291752   318A      0.292753  
     319A      0.296644   320A      0.297533   321A      0.309328  
     322A      0.310315   323A      0.310551   324A      0.313303  
     325A      0.316132   326A      0.324142   327A      0.324676  
     328A      0.328483   329A      0.333346   330A      0.333978  
     331A      0.342082   332A      0.349670   333A      0.350305  
     334A      0.351459   335A      0.373138   336A      0.373407  
     337A      0.388664   338A      0.390213   339A      0.399373  
     340A      0.418577   341A      0.424477   342A      0.424956  
     343A      0.454957   344A      0.455911   345A      0.473245  
     346A      0.484872   347A      0.491145   348A      0.491520  
     349A      0.492335   350A      0.501816   351A      0.505796  
     352A      0.509441   353A      0.516356   354A      0.523490  
     355A      0.526694   356A      0.531398   357A      0.532057  
     358A      0.536542   359A      0.545440   360A      0.545921  
     361A      0.546496   362A      0.547101   363A      0.550469  
     364A      0.551288   365A      0.553080   366A      0.555997  
     367A      0.557211   368A      0.561976   369A      0.562654  
     370A      0.574431   371A      0.575033   372A      0.575490  
     373A      0.575753   374A      0.575811   375A      0.576911  
     376A      0.578089   377A      0.582061   378A      0.582958  
     379A      0.583730   380A      0.590655   381A      0.592540  
     382A      0.594050   383A      0.594389   384A      0.595008  
     385A      0.596694   386A      0.597954   387A      0.599265  
     388A      0.601451   389A      0.602084   390A      0.603332  
     391A      0.605425   392A      0.605960   393A      0.608746  
     394A      0.609560   395A      0.610607   396A      0.611687  
     397A      0.618112   398A      0.618537   399A      0.619900  
     400A      0.621032   401A      0.624677   402A      0.625436  
     403A      0.628002   404A      0.629641   405A      0.631699  
     406A      0.634419   407A      0.637480   408A      0.644945  
     409A      0.646380   410A      0.647716   411A      0.649330  
     412A      0.654665   413A      0.655574   414A      0.658169  
     415A      0.661189   416A      0.661726   417A      0.662108  
     418A      0.671364   419A      0.673386   420A      0.674818  
     421A      0.678361   422A      0.679827   423A      0.679890  
     424A      0.681880   425A      0.683473   426A      0.684219  
     427A      0.684589   428A      0.685217   429A      0.686058  
     430A      0.688956   431A      0.692191   432A      0.718145  
     433A      0.718676   434A      0.719767   435A      0.720606  
     436A      0.721502   437A      0.726789   438A      0.736497  
     439A      0.736896   440A      0.737833   441A      0.737970  
     442A      0.738615   443A      0.741060   444A      0.742146  
     445A      0.745295   446A      0.748173   447A      0.757464  
     448A      0.758928   449A      0.759702   450A      0.765079  
     451A      0.766208   452A      0.781677   453A      0.786719  
     454A      0.787330   455A      0.793818   456A      0.798434  
     457A      0.799588   458A      0.802228   459A      0.805365  
     460A      0.807863   461A      0.817463   462A      0.817839  
     463A      0.818902   464A      0.821434   465A      0.822359  
     466A      0.824431   467A      0.826751   468A      0.827056  
     469A      0.827499   470A      0.834128   471A      0.836490  
     472A      0.837319   473A      0.846333   474A      0.847873  
     475A      0.850260   476A      0.856525   477A      0.858038  
     478A      0.866469   479A      0.868119   480A      0.868947  
     481A      0.873349   482A      0.873844   483A      0.874917  
     484A      0.878004   485A      0.879248   486A      0.881698  
     487A      0.894079   488A      0.894391   489A      0.897355  
     490A      0.905059   491A      0.905502   492A      0.906754  
     493A      0.911138   494A      0.912748   495A      0.919446  
     496A      0.924159   497A      0.925122   498A      0.928725  
     499A      0.929407   500A      0.929713   501A      0.938319  
     502A      0.939637   503A      0.941594   504A      0.944618  
     505A      0.945665   506A      0.947628   507A      0.950512  
     508A      0.954405   509A      0.954581   510A      0.956320  
     511A      0.957849   512A      0.959026   513A      0.961760  
     514A      0.965591   515A      0.965731   516A      0.973033  
     517A      0.976248   518A      0.976892   519A      0.977702  
     520A      0.980480   521A      0.986743   522A      0.989617  
     523A      0.992678   524A      0.994187   525A      0.996355  
     526A      0.998358   527A      0.999073   528A      1.001414  
     529A      1.003210   530A      1.004252   531A      1.004584  
     532A      1.007177   533A      1.007986   534A      1.009143  
     535A      1.013380   536A      1.013762   537A      1.015147  
     538A      1.016861   539A      1.017539   540A      1.017890  
     541A      1.018099   542A      1.020835   543A      1.024541  
     544A      1.024977   545A      1.025846   546A      1.036205  
     547A      1.036524   548A      1.037186   549A      1.038188  
     550A      1.041618   551A      1.042375   552A      1.043662  
     553A      1.046539   554A      1.050967   555A      1.053831  
     556A      1.086441   557A      1.090127   558A      1.097994  
     559A      1.105525   560A      1.105940   561A      1.107168  
     562A      1.111576   563A      1.112919   564A      1.125949  
     565A      1.128668   566A      1.139514   567A      1.142693  
     568A      1.145698   569A      1.152155   570A      1.154076  
     571A      1.169391   572A      1.171828   573A      1.173609  
     574A      1.180042   575A      1.191170   576A      1.193533  
     577A      1.194813   578A      1.209552   579A      1.211240  
     580A      1.224394   581A      1.243863   582A      1.247114  
     583A      1.261774   584A      1.266030   585A      1.267293  
     586A      1.271687   587A      1.285317   588A      1.287344  
     589A      1.304637   590A      1.305843   591A      1.320021  
     592A      1.323358   593A      1.327405   594A      1.327809  
     595A      1.344907   596A      1.348033   597A      1.351109  
     598A      1.365231   599A      1.366697   600A      1.367435  
     601A      1.404399   602A      1.405814   603A      1.406875  
     604A      1.420250   605A      1.429014   606A      1.438456  
     607A      1.439092   608A      1.461654   609A      1.464102  
     610A      1.464805   611A      1.491854   612A      1.493364  
     613A      1.494532   614A      1.496586   615A      1.498531  
     616A      1.505669   617A      1.518535   618A      1.520701  
     619A      1.537379   620A      1.538398   621A      1.544221  
     622A      1.570687   623A      1.573006   624A      1.578210  
     625A      1.603858   626A      1.605259   627A      1.613385  
     628A      1.640152   629A      1.644404   630A      1.657686  
     631A      1.682489   632A      1.766781   633A      1.767556  
     634A      1.773589   635A      1.938455   636A      1.942006  
     637A      1.943180   638A      1.999833   639A      2.000332  
     640A      2.000927   641A      2.035057   642A      2.036927  
     643A      2.045298   644A      2.089945   645A      2.093761  

    Final Occupation by Irrep:
              A 
    DOCC [   210 ]

  @RKS Final Energy: -2422.51823727893498

   => Energetics <=

    Nuclear Repulsion Energy =           6343.0645432337532839
    One-Electron Energy =              -15902.7856963929298217
    Two-Electron Energy =                7423.0921915990847992
    DFT Exchange-Correlation Energy =    -285.8892757188434643
    Empirical Dispersion Energy =           0.0000000000000000
    VV10 Nonlocal Energy =                  0.0000000000000000
    Total Energy =                      -2422.5182372789349756

Computation Completed


Properties will be evaluated at   0.000000,   0.000000,   0.000000 [a0]

Properties computed using the SCF density matrix

  Nuclear Dipole Moment: [e a0]
     X:   -31.2124      Y:    -1.6578      Z:     1.4490

  Electronic Dipole Moment: [e a0]
     X:    29.8054      Y:     1.8790      Z:    -1.5951

  Dipole Moment: [e a0]
     X:    -1.4070      Y:     0.2213      Z:    -0.1461     Total:     1.4318

  Dipole Moment: [D]
     X:    -3.5762      Y:     0.5624      Z:    -0.3713     Total:     3.6392


*** tstop() called on Rubens-MacBook-Pro-2.local at Sun Jan 24 00:43:25 2021
Module time:
	user time   =   11338.41 seconds =     188.97 minutes
	system time =     618.65 seconds =      10.31 minutes
	total time  =       2463 seconds =      41.05 minutes
Total time:
	user time   =   11338.41 seconds =     188.97 minutes
	system time =     618.65 seconds =      10.31 minutes
	total time  =       2463 seconds =      41.05 minutes

    Psi4 stopped on: Sunday, 24 January 2021 12:43AM
    Psi4 wall time for execution: 0:41:06.61

*** Psi4 exiting successfully. Buy a developer a beer!
