12
 energy: -15.879640656354 gnorm: 0.000042790872 xtb: 6.3.3 (8d1dad5d26fa70d8c78cc3f4c837a3e1093e11cf)
C         0.00004489835216    1.19910506093172   -0.69228638304389
C         0.00006039546571    1.19909863503583    0.69230918678970
H         0.00007548095953    2.13479733929508    1.23253807771116
C         0.00000155424889    0.00001351547399   -1.38458982703249
C        -0.00003433370538   -1.19909026954742    0.69229653329614
H        -0.00006083375729   -2.13479359957630    1.23251787814524
H         0.00003054680175   -0.00000188782639    2.46505344661465
H         0.00004459211203    2.13480732156925   -1.23250970894599
C         0.00002008202591   -0.00000078853481    1.38459902399292
C        -0.00003471168995   -1.19908363777850   -0.69229999644260
H        -0.00005231158265    0.00002162669373   -2.46504425114030
H        -0.00009667230972   -2.13478359000419   -1.23252749861455
