78
 energy: -137.788846702486 gnorm: 0.000364939827 xtb: 6.3.3 (8d1dad5d26fa70d8c78cc3f4c837a3e1093e11cf)
N         0.30010934722077   -1.08909228609414   -0.77538587070912
C         0.39809668176576   -1.10111982598521    0.55046392252805
N         0.25340875631654    1.25588544041294   -0.66600248773838
C         0.17197112844681    0.17978721522183   -2.80220237621829
H         0.63740508983203   -1.78162612255957   -5.51041503235503
C         0.36799395842296    1.15061832287346    0.65462764111592
C         0.44936248439494   -2.40059047159736    1.22053274956984
H        -0.12245404497335   -3.48990315852234   -0.52526657454533
C         0.24294138646578    0.11192357185343   -1.34270122551716
N         0.45244036274910   -0.00699179082606    1.30376015744378
C         0.53477572349875   -4.87004971114732    2.50407730179839
C         0.39877918146425    2.38478552407498    1.43923032427150
H        -0.84753689999537    6.85195752693376    2.41046278058315
C         0.43000515201520   -0.95682041721467   -3.56594982403780
C         0.05029060197657    0.47382853203821   -7.06352299032470
C        -0.12409306898102    1.38464006076532   -3.43764585925807
C        -0.21640665031764   -0.68886671274487  -10.30923680591266
C         0.38963910800664   -0.89444376571769   -4.94415923003425
C         0.08046395880189    0.30604377923192   -5.58260810758546
C        -0.16741276724675    1.44323949771994   -4.81362580334182
C        -0.22609567409238   -0.72338317735245   -9.10259736098191
H        -0.38660242333386    2.36769522619508   -5.32646936827313
C         0.49224015048435    3.50215200273422    3.56231905716415
C         0.47400992949923    2.33402745305518    2.83046289960279
H         0.67602808831131   -1.87772685681472   -3.06069125625432
C         0.35991519000291    3.62058700385785    0.79544854552846
H         0.51648566845400    1.37178627466412    3.31535402467003
H         0.32812328553213    3.64413453383814   -0.28236999180663
C         0.36569311873200    4.78836073674383    1.53038124636712
H         1.17980443904448   -3.74301175534943    4.23153816867947
C         0.42545081990894    5.96025183284436    3.77694610412110
C         0.41766162520415    4.73832773226059    2.92263852299846
H         0.55875838767453    3.48422200244667    4.63973261351650
C         0.14711842765592   -3.56514404723225    0.51632691773629
C         0.80995569801808   -2.48172164376057    2.56400322301124
H         1.06102999974810   -1.57459684273802    3.09094401300772
C         0.85700751738850   -3.70563585164028    3.20021149813383
C         0.19195886866678   -4.78559797114992    1.15468302825400
H        -0.03413062929488   -5.70010347483994    0.62720845809634
C         0.57753342803288   -6.23272485554939    3.10721978346899
N         0.38462243705694   -6.25763492891439    4.46732243547408
O         0.75446557412998   -7.23783182434131    2.45352068904595
C         0.45877922664204   -8.44036460307159    5.77423494511722
C        -2.42146442427703   12.24583414894292    4.42384643355952
C         0.41123935299162   -7.38853918290529    5.18381917457050
H        -0.31135278382811  -10.07124049709882   12.21495161979955
H        -0.31468110200736    2.25927821895094   -2.83630874117023
H         0.36435250473334    5.73699872820537    1.01128031666518
C         0.51520149696874   -9.64313818210389    6.48619566006539
H        -1.23543574069262   -5.37626083582205  -14.97091867364659
C         0.52161780589797   -9.71385907853191    7.80309384845852
C        -3.25484720739180   13.14426268505347    4.07612776537171
C         0.53607046555366   -9.79777287858857    9.06432520643007
C         0.56285788051628   -9.88992273379591   10.33448615243845
C        -0.29517291051540   -3.87150195158473  -13.88229461854123
O         0.22475362922611    1.54270915609376   -7.60791550513623
C        -0.27710127983985   -2.82595239310329  -13.15497767500343
O         1.01144640177909    6.03221019528179    4.83417561268523
N        -0.32087212404381    6.99327472249740    3.26193388592694
H         0.17759444652455   -5.40258787841455    4.96473652501546
C        -0.47562637680106    8.16934846840469    3.88309747703563
N        -0.20091220400652   -0.68068655911094   -7.76451975349111
C        -0.58188713465325    9.21054519776502    4.48464807216880
C        -0.24686742994604   -1.78378157092829  -12.44028452087846
C        -0.20520283758192   -0.68779135591523  -11.70794052285017
C        -0.73559899299357   10.42975037522137    5.15321365344489
H        -0.40501592262128   -1.53922336482007   -7.27209562043697
C        -1.59536367437055   11.35716810521158    4.77850567276404
H        -0.10350931410555   10.58604423397099    6.01977982208280
C         0.59224718185370   -9.98422271820031   11.63168297443853
H        -0.15131988463736    0.28500832295746  -12.18365611604646
C        -0.31137753796049   -4.93914611081047  -14.62545287137469
H         0.59995375773354   -5.43212638119150  -14.92708514888230
H         1.52271139633982   -9.97978213785412   12.17830257489252
C        -4.10764002815240   14.05991923907170    3.72014765843474
H        -3.84307999810863   14.84175146662270    3.02510949670160
H        -5.11543005776530   14.07558033419141    4.10564141316522
H         0.56087608790743  -10.54836667384373    5.89113443491940
