
    -----------------------------------------------------------------------
          Psi4: An Open-Source Ab Initio Electronic Structure Package
                               Psi4 1.3.2 release

                         Git: Rev {HEAD} ecbda83 


    R. M. Parrish, L. A. Burns, D. G. A. Smith, A. C. Simmonett,
    A. E. DePrince III, E. G. Hohenstein, U. Bozkaya, A. Yu. Sokolov,
    R. Di Remigio, R. M. Richard, J. F. Gonthier, A. M. James,
    H. R. McAlexander, A. Kumar, M. Saitow, X. Wang, B. P. Pritchard,
    P. Verma, H. F. Schaefer III, K. Patkowski, R. A. King, E. F. Valeev,
    F. A. Evangelista, J. M. Turney, T. D. Crawford, and C. D. Sherrill,
    J. Chem. Theory Comput. 13(7) pp 3185--3197 (2017).
    (doi: 10.1021/acs.jctc.7b00174)


                         Additional Contributions by
    P. Kraus, H. Kruse, M. H. Lechner, M. C. Schieber, R. A. Shaw,
    A. Alenaizan, R. Galvelis, Z. L. Glick, S. Lehtola, and J. P. Misiewicz

    -----------------------------------------------------------------------


    Psi4 started on: Thursday, 28 January 2021 05:31PM

    Process ID: 78074
    Host:       Rubens-MacBook-Pro-2.local
    PSIDATADIR: /opt/anaconda3/envs/p4env/share/psi4
    Memory:     500.0 MiB
    Threads:    8
    
  ==> Input File <==

--------------------------------------------------------------------------
memory 8gb
molecule {
    symmetry c1 # this is important; some perturbations will break symmetry
#    no_reorient
N         0.22865335412548   -2.41847723888949   -0.01094411566058
C         0.28297197222917   -2.35524545361232    1.31808412563266
C         0.20317278977531   -1.28482706750435   -0.68294675580940
C         0.09256630109172   -0.07777106661480   -2.60220049375416
C         0.36342044649744    2.18184540506590    1.32341358362285
N         0.24619262948058   -0.08440569754532    0.01297537281376
N         0.13372175859043   -1.26378347577838   -1.99922923353959
N         0.26868226127516    2.25040949236675   -0.00246008077993
N         0.32832303407930   -1.23799402906009    2.04037351299192
C         0.29226911220659   -3.61794359632660    2.04754248278931
N         0.38381884326671    1.06138537609837    2.04241330799309
C         0.32070471324918   -0.08700854521599    1.39891653364884
C         0.45302575221793    3.44232514890684    2.05100848883318
C         0.21200809423249    1.11952199706044   -0.67659655387840
N         0.12688355589371    1.10486818621062   -1.99126407150776
C         0.00240977166180   -0.06618173146014   -4.05763257327488
H         0.32683115098431   -4.80292753579700    0.27353972767484
C         0.29425779905552   -3.62119414164239    3.44370775182549
C         0.29341082227975   -6.02982566916202    3.43450394694620
C         0.31007624933837   -4.82748742549672    1.35160527531806
C         0.31143629003497   -7.27927924466031    4.24850328007023
H         0.36252282383415   -6.94753362946315    1.48070356026860
C         0.31180874284905   -6.02335098690324    2.03958716056086
C         0.29955786409428   -4.81822032088844    4.12604258028863
H         0.29383229959245   -2.67700323008642    3.96431239384239
H         0.30921842321662   -4.84515615626362    5.20527433739518
C         0.01239693293139   -1.26173233505347   -4.77811196346894
C        -0.07248188250232   -1.23308343427019   -6.15360203604132
H        -0.31428334439861    2.12404243134973   -6.60956493292248
C        -0.10852377820504    1.14970689583217   -4.73397044589514
H         0.08487246670732   -2.19229122558799   -4.23824429291336
H        -0.13285074799435    2.06068284333980   -4.15735141990869
C        -0.19067024340695    1.17296943712603   -6.11040625952817
C        -0.15942277317943   -0.01886799517196   -6.83495096635354
C        -0.26278326506273   -0.06985967505325   -8.32217201016887
H        -0.07426766654952   -2.14518664645380   -6.73123381910501
C         0.72577225767647    7.16588602026308    4.12701823336592
H         0.44348749415886    6.79299202696661    1.55114851659600
C         0.48093593789612    5.84222705612847    2.06123908234087
H         0.87459187264478    4.59794992833940    5.19701997967728
H         0.27457593826268    4.64102318922750    0.29303755290933
C         0.62464460686582    5.84141481649887    3.44881027710120
C         0.62091946907962    3.43657348974079    3.43644520027289
C         0.70719280244579    4.62630259126728    4.12921788433012
H         0.68616209624752    2.48770323599197    3.94483188857891
C         0.39056677397325    4.65653490523201    1.36488436728830
O         0.79447023439818   -7.33924651622485    5.35779860832909
N        -0.28600186410313   -8.35518100758828    3.63727369317838
C        -0.45821341886540  -11.87777956682277    5.40139499735597
N         0.24441708729709    1.04033544469155   -8.95302764330552
O        -0.73966404824117   -1.00794267448294   -8.92201130829647
C        -1.17681834002317   10.47307116359428   12.59153080660678
C         0.22531015331500    1.20513483501842  -10.28130997070021
H         0.71877446462194   11.31270733996550    7.19687521820103
C         0.17130967379364    1.31767948942752  -11.48201647037357
C         0.34276021145701   10.40935087198630    7.66314273805589
C        -2.54622671596318  -16.08721864836684    3.27496377372034
C        -0.36942774982912   -9.56256625435506    4.20957354393413
C         0.12294895657113    1.48554802610721  -12.86969142093103
C        -2.02445482148993  -15.02157302385581    3.80812932740052
C         0.51793407026916    2.58659288200812  -13.47958576845858
C        -0.42721764284767   10.43587839597910   10.12860453102051
C        -0.40318812301220  -10.62777674064884    4.77667645780910
H        -0.26504456776569    0.65089167105763  -13.44212154715441
C         0.88804451963837    3.64250017432511  -14.06745752464952
H        -0.48770918988781   10.26473389446759   13.39543007045326
C         1.25187558710836    4.70747396625128  -14.66443672717986
H         0.93482714112430    6.60496804663010  -15.45687901747520
C        -1.51206309898113  -13.97729403428435    4.32758929507237
H        -3.58734425283364  -16.33680519084664    3.40959509048170
C         1.62443329400597    5.79571295768701  -15.27195104300774
C        -0.99885442757571  -12.94624095096700    4.84823560527097
H        -1.95886772840866  -16.76700321626405    2.67728267772666
O         1.16412876373209    8.15638026258534    3.58478439881313
N         0.26048983873790    7.16697880469390    5.41979614018338
H        -0.02058883455742  -11.93699958389894    6.39155322688491
C         0.26941229348640    8.25470483512531    6.20003578743367
C        -0.05277983106460   10.42248657359048    8.92151135569109
C         0.31196004136403    9.26396266992886    6.86115825514186
H        -2.19484990449436   10.69550967123509   12.87189014230603
C        -0.79859586401190   10.45646818199056   11.34702087075818
H         2.63741666620708    5.93446868452176  -15.61709872258882
H        -0.15905049982251    6.33103497667136    5.80346346567967
H         0.69728927568591    1.76257886060919   -8.40960114613905
H        -0.73685315178029   -8.23885219058750    2.73999985228453

}

pert = 0.001
lambdas = [pert, -pert, 2.0*pert, -2.0*pert]

set {
    basis     6-31g
    d_convergence   8
    reference rhf
    scf_type direct
}
method = 'B3LYP'

perturbed_energies = np.zeros((len(lambdas),3))
x_perturbed_dipoles = np.zeros((len(lambdas),3))
y_perturbed_dipoles = np.zeros((len(lambdas),3))
z_perturbed_dipoles = np.zeros((len(lambdas),3))

# start with a reference dipole calculation
properties(method, properties=['dipole'])
mu_x = psi4.core.variable(method + ' DIPOLE X') / psi_dipmom_au2debye
mu_y = psi4.core.variable(method + ' DIPOLE Y') / psi_dipmom_au2debye
mu_z = psi4.core.variable(method + ' DIPOLE Z') / psi_dipmom_au2debye
analytic_dipole = np.array([mu_x, mu_y, mu_z])

# now compute with different applied fields
for step, l in enumerate(lambdas):
    set perturb_h true
    set perturb_with dipole
    # x pertubation
    set perturb_dipole [$l, 0, 0]
    perturbed_energies[step,0] = properties(method, properties=['dipole'])
    x_perturbed_dipoles[step,0] = psi4.core.variable(method + ' DIPOLE X')
    x_perturbed_dipoles[step,1] = psi4.core.variable(method + ' DIPOLE Y')
    x_perturbed_dipoles[step,2] = psi4.core.variable(method + ' DIPOLE Z')
    # y pertubation
    set perturb_dipole [0, $l, 0]
    perturbed_energies[step,1] = properties(method, properties=['dipole'])
    y_perturbed_dipoles[step,0] = psi4.core.variable(method + ' DIPOLE X')
    y_perturbed_dipoles[step,1] = psi4.core.variable(method + ' DIPOLE Y')
    y_perturbed_dipoles[step,2] = psi4.core.variable(method + ' DIPOLE Z')
    # z pertubation
    set perturb_dipole [0, 0, $l]
    perturbed_energies[step,2] = properties(method, properties=['dipole'])
    z_perturbed_dipoles[step,0] = psi4.core.variable(method + ' DIPOLE X')
    z_perturbed_dipoles[step,1] = psi4.core.variable(method + ' DIPOLE Y')
    z_perturbed_dipoles[step,2] = psi4.core.variable(method + ' DIPOLE Z')

# use 3- and 5-point finite difference formulae to compute the dipole
mu_3pt = (perturbed_energies[0] - perturbed_energies[1]) / (2.0*pert)
mu_5pt = (8.0*perturbed_energies[0] - 8.0*perturbed_energies[1] - perturbed_energies[2] + perturbed_energies[3]) / (12.0*pert)
# and the polarizability
a_x_3pt = (x_perturbed_dipoles[0] - x_perturbed_dipoles[1]) / (2.0*pert)
a_y_3pt = (y_perturbed_dipoles[0] - y_perturbed_dipoles[1]) / (2.0*pert)
a_z_3pt = (z_perturbed_dipoles[0] - z_perturbed_dipoles[1]) / (2.0*pert)
alpha_3pt = np.vstack((a_x_3pt, a_y_3pt, a_z_3pt))
a_x_5pt = (8.0*x_perturbed_dipoles[0] - 8.0*x_perturbed_dipoles[1] - x_perturbed_dipoles[2] + x_perturbed_dipoles[3]) / (12.0*pert)
a_y_5pt = (8.0*y_perturbed_dipoles[0] - 8.0*y_perturbed_dipoles[1] - y_perturbed_dipoles[2] + y_perturbed_dipoles[3]) / (12.0*pert)
a_z_5pt = (8.0*z_perturbed_dipoles[0] - 8.0*z_perturbed_dipoles[1] - z_perturbed_dipoles[2] + z_perturbed_dipoles[3]) / (12.0*pert)
alpha_5pt = np.vstack((a_x_5pt, a_y_5pt, a_z_5pt))

# let's see what happened!
np.set_printoptions(suppress=True)
print('Analytic dipole\n', analytic_dipole)
print('3point finite difference dipole\n', mu_3pt)
print('5point finite difference dipole\n', mu_5pt)

print('3point finite difference polarizability\n', alpha_3pt)
print('5point finite difference polarizability\n', alpha_5pt)
--------------------------------------------------------------------------

  Memory set to   7.451 GiB by Python driver.

*** tstart() called on Rubens-MacBook-Pro-2.local
*** at Thu Jan 28 17:31:32 2021

   => Loading Basis Set <=

    Name: 6-31G
    Role: ORBITAL
    Keyword: BASIS
    atoms 1, 6-9, 11, 15, 48, 50, 75                                                                                            entry N          line   102 file /opt/anaconda3/envs/p4env/share/psi4/basis/6-31g.gbs 
    atoms 2-5, 10, 12-14, 16, 18-21, 23-24, 27-28, 30, 33-35, 37, 39, 42-44, 46, 49, 52-53, 55-63, 65, 67, 69, 71-72, 77-79, 81 entry C          line    87 file /opt/anaconda3/envs/p4env/share/psi4/basis/6-31g.gbs 
    atoms 17, 22, 25-26, 29, 31-32, 36, 38, 40-41, 45, 54, 64, 66, 68, 70, 73, 76, 80, 82-85                                    entry H          line    26 file /opt/anaconda3/envs/p4env/share/psi4/basis/6-31g.gbs 
    atoms 47, 51, 74                                                                                                            entry O          line   117 file /opt/anaconda3/envs/p4env/share/psi4/basis/6-31g.gbs 


         ---------------------------------------------------------
                                   SCF
               by Justin Turney, Rob Parrish, Andy Simmonett
                          and Daniel G. A. Smith
                              RKS Reference
                        8 Threads,   7629 MiB Core
         ---------------------------------------------------------

  ==> Geometry <==

    Molecular point group: c1
    Full point group: C1

    Geometry (in Angstrom), charge = 0, multiplicity = 1:

       Center              X                  Y                   Z               Mass       
    ------------   -----------------  -----------------  -----------------  -----------------
         N            0.144239390877    -2.375144276013    -0.057267793290    14.003074004430
         C            0.198558008981    -2.311912490736     1.271760448003    12.000000000000
         C            0.118758826527    -1.241494104628    -0.729270433439    12.000000000000
         C            0.008152337844    -0.034438103738    -2.648524171384    12.000000000000
         C            0.279006483249     2.225178367943     1.277089905993    12.000000000000
         N            0.161778666232    -0.041072734669    -0.033348304816    14.003074004430
         N            0.049307795342    -1.220450512902    -2.045552911169    14.003074004430
         N            0.184268298027     2.293742455243    -0.048783758409    14.003074004430
         N            0.243909070831    -1.194661066183     1.994049835362    14.003074004430
         C            0.207855148958    -3.574610633450     2.001218805160    12.000000000000
         N            0.299404880019     1.104718338975     1.996089630364    14.003074004430
         C            0.236290750001    -0.043675582339     1.352592856019    12.000000000000
         C            0.368611788970     3.485658111784     2.004684811204    12.000000000000
         C            0.127594130984     1.162854959937    -0.722920231508    12.000000000000
         N            0.042469592646     1.148201149087    -2.037587749137    14.003074004430
         C           -0.082004191586    -0.022848768583    -4.103956250904    12.000000000000
         H            0.242417187736    -4.759594572920     0.227216050045     1.007825032230
         C            0.209843835807    -3.577861178766     3.397384074196    12.000000000000
         C            0.208996859032    -5.986492706285     3.388180269317    12.000000000000
         C            0.225662286090    -4.784154462620     1.305281597689    12.000000000000
         C            0.227022326787    -7.235946281784     4.202179602441    12.000000000000
         H            0.278108860586    -6.904200666586     1.434379882639     1.007825032230
         C            0.227394779601    -5.980018024027     1.993263482931    12.000000000000
         C            0.215143900846    -4.774887358012     4.079718902659    12.000000000000
         H            0.209418336344    -2.633670267210     3.917988716213     1.007825032230
         H            0.224804459969    -4.801823193387     5.158950659766     1.007825032230
         C           -0.072017030317    -1.218399372177    -4.824435641098    12.000000000000
         C           -0.156895845750    -1.189750471394    -6.199925713671    12.000000000000
         H           -0.398697307647     2.167375394226    -6.655888610552     1.007825032230
         C           -0.192937741453     1.193039858709    -4.780294123525    12.000000000000
         H            0.000458503459    -2.148958262711    -4.284567970543     1.007825032230
         H           -0.217264711242     2.104015806216    -4.203675097538     1.007825032230
         C           -0.275084206655     1.216302400003    -6.156729937158    12.000000000000
         C           -0.243836736428     0.024464967705    -6.881274643983    12.000000000000
         C           -0.347197228311    -0.026526712177    -8.368495687798    12.000000000000
         H           -0.158681629798    -2.101853683577    -6.777557496734     1.007825032230
         C            0.641358294428     7.209218983140     4.080694555736    12.000000000000
         H            0.359073530911     6.836324989843     1.504824838967     1.007825032230
         C            0.396521974648     5.885560019005     2.014915404711    12.000000000000
         H            0.790177909397     4.641282891216     5.150696302048     1.007825032230
         H            0.190161975015     4.684356152104     0.246713875280     1.007825032230
         C            0.540230643618     5.884747779376     3.402486599472    12.000000000000
         C            0.536505505832     3.479906452617     3.390121522643    12.000000000000
         C            0.622778839198     4.669635554144     4.082894206701    12.000000000000
         H            0.601748132999     2.531036198869     3.898508210949     1.007825032230
         C            0.306152810725     4.699867868109     1.318560689659    12.000000000000
         O            0.710056271150    -7.295913553348     5.311474930700    15.994914619570
         N           -0.370415827351    -8.311848044712     3.590950015549    14.003074004430
         C           -0.542627382114   -11.834446603946     5.355071319726    12.000000000000
         N            0.160003124049     1.083668407568    -8.999351320935    14.003074004430
         O           -0.824078011489    -0.964609711606    -8.968334985926    15.994914619570
         C           -1.261232303271    10.516404126471    12.545207128977    12.000000000000
         C            0.140896190067     1.248467797895   -10.327633648330    12.000000000000
         H            0.634360501374    11.356040302842     7.150551540572     1.007825032230
         C            0.086895710546     1.361012452304   -11.528340148003    12.000000000000
         C            0.258346248209    10.452683834863     7.616819060426    12.000000000000
         C           -2.630640679211   -16.043885685490     3.228640096091    12.000000000000
         C           -0.453841713077    -9.519233291478     4.163249866305    12.000000000000
         C            0.038534993323     1.528880988984   -12.916015098561    12.000000000000
         C           -2.108868784738   -14.978240060979     3.761805649771    12.000000000000
         C            0.433520107021     2.629925844885   -13.525909446088    12.000000000000
         C           -0.511631606096    10.479211358856    10.082280853391    12.000000000000
         C           -0.487602086260   -10.584443777772     4.730352780180    12.000000000000
         H           -0.349458531014     0.694224633934   -13.488445224784     1.007825032230
         C            0.803630556390     3.685833137202   -14.113781202279    12.000000000000
         H           -0.572123153136    10.308066857344    13.349106392824     1.007825032230
         C            1.167461623860     4.750806929128   -14.710760404809    12.000000000000
         H            0.850413177876     6.648301009507   -15.503202695105     1.007825032230
         C           -1.596477062229   -13.933961071408     4.281265617443    12.000000000000
         H           -3.671758216082   -16.293472227970     3.363271412852     1.007825032230
         C            1.540019330758     5.839045920564   -15.318274720637    12.000000000000
         C           -1.083268390824   -12.902907988090     4.801911927641    12.000000000000
         H           -2.043281691657   -16.723670253387     2.630959000097     1.007825032230
         O            1.079714800484     8.199713225462     3.538460721184    15.994914619570
         N            0.176075875490     7.210311767571     5.373472462554    14.003074004430
         H           -0.105002797806   -11.893666621022     6.345229549255     1.007825032230
         C            0.184998330238     8.298037798002     6.153712109804    12.000000000000
         C           -0.137193794313    10.465819536467     8.875187678062    12.000000000000
         C            0.227546078116     9.307295632806     6.814834577512    12.000000000000
         H           -2.279263867742    10.738842634112    12.825566464677     1.007825032230
         C           -0.883009827260    10.499801144867    11.300697193129    12.000000000000
         H            2.553002702959     5.977801647398   -15.663422400218     1.007825032230
         H           -0.243464463071     6.374367939548     5.757139788050     1.007825032230
         H            0.612875312438     1.805911823486    -8.455924823769     1.007825032230
         H           -0.821267115028    -8.195519227711     2.693676174655     1.007825032230

  Running in c1 symmetry.

  Rotational constants: A =      0.00050  B =      0.00048  C =      0.00025 [cm^-1]
  Rotational constants: A =     15.00668  B =     14.52824  C =      7.43781 [MHz]
  Nuclear repulsion = 6211.439436616259627

  Charge       = 0
  Multiplicity = 1
  Electrons    = 406
  Nalpha       = 203
  Nbeta        = 203

  ==> Algorithm <==

  SCF Algorithm Type is DIRECT.
  DIIS enabled.
  MOM disabled.
  Fractional occupation disabled.
  Guess Type is SAD.
  Energy threshold   = 1.00e-06
  Density threshold  = 1.00e-08
  Integral threshold = 0.00e+00

  ==> Primary Basis <==

  Basis Set: 6-31G
    Blend: 6-31G
    Number of shells: 353
    Number of basis function: 597
    Number of Cartesian functions: 597
    Spherical Harmonics?: false
    Max angular momentum: 1

  ==> DFT Potential <==

   => Composite Functional: B3LYP <= 

    B3LYP Hyb-GGA Exchange-Correlation Functional

    P. J. Stephens, F. J. Devlin, C. F. Chabalowski, and M. J. Frisch, J. Phys. Chem. 98, 11623 (1994)

    Deriv               =              1
    GGA                 =           TRUE
    Meta                =          FALSE

    Exchange Hybrid     =           TRUE
    MP2 Hybrid          =          FALSE

   => Exchange Functionals <=

    0.0800   Slater exchange
    0.7200         Becke 88

   => Exact (HF) Exchange <=

    0.2000               HF 

   => Correlation Functionals <=

    0.1900   Vosko, Wilk & Nusair (VWN5_RPA)
    0.8100   Lee, Yang & Parr

   => Molecular Quadrature <=

    Radial Scheme          =       TREUTLER
    Pruning Scheme         =           FLAT
    Nuclear Scheme         =       TREUTLER

    BS radius alpha        =              1
    Pruning alpha          =              1
    Radial Points          =             75
    Spherical Points       =            302
    Total Points           =        1877002
    Total Blocks           =          13965
    Max Points             =            256
    Max Functions          =            219

   => Loading Basis Set <=

    Name: (6-31G AUX)
    Role: JKFIT
    Keyword: DF_BASIS_SCF
    atoms 1, 6-9, 11, 15, 48, 50, 75                                                                                            entry N          line   171 file /opt/anaconda3/envs/p4env/share/psi4/basis/cc-pvdz-jkfit.gbs 
    atoms 2-5, 10, 12-14, 16, 18-21, 23-24, 27-28, 30, 33-35, 37, 39, 42-44, 46, 49, 52-53, 55-63, 65, 67, 69, 71-72, 77-79, 81 entry C          line   121 file /opt/anaconda3/envs/p4env/share/psi4/basis/cc-pvdz-jkfit.gbs 
    atoms 17, 22, 25-26, 29, 31-32, 36, 38, 40-41, 45, 54, 64, 66, 68, 70, 73, 76, 80, 82-85                                    entry H          line    51 file /opt/anaconda3/envs/p4env/share/psi4/basis/cc-pvdz-jkfit.gbs 
    atoms 47, 51, 74                                                                                                            entry O          line   221 file /opt/anaconda3/envs/p4env/share/psi4/basis/cc-pvdz-jkfit.gbs 

  Starting with a DF guess...

  ==> Pre-Iterations <==

   -------------------------------------------------------
    Irrep   Nso     Nmo     Nalpha   Nbeta   Ndocc  Nsocc
   -------------------------------------------------------
     A        597     597       0       0       0       0
   -------------------------------------------------------
    Total     597     597     203     203     203       0
   -------------------------------------------------------

  ==> Integral Setup <==

  DFHelper Memory: AOs need 4.676 GiB; user supplied 4.676 GiB. Using in-core AOs.

  ==> MemDFJK: Density-Fitted J/K Matrices <==

    J tasked:                   Yes
    K tasked:                   Yes
    wK tasked:                   No
    OpenMP threads:               8
    Memory [MiB]:              4788
    Algorithm:                 Disk
    Schwarz Cutoff:           1E-12
    Mask sparsity (%):      70.4578
    Fitting Condition:        1E-10

   => Auxiliary Basis Set <=

  Basis Set: (6-31G AUX)
    Blend: CC-PVDZ-JKFIT
    Number of shells: 1680
    Number of basis function: 5541
    Number of Cartesian functions: 5541
    Spherical Harmonics?: false
    Max angular momentum: 3

  Cached 16.7% of DFT collocation blocks in 1.005 [GiB].

  Minimum eigenvalue in the overlap matrix is 6.4219599452E-05.
  Using Symmetric Orthogonalization.

  SCF Guess: Superposition of Atomic Densities via on-the-fly atomic UHF.

  ==> Iterations <==

                           Total Energy        Delta E     RMS |[F,P]|

   @DF-RKS iter SAD: -2614.86679386442665   -2.61487e+03   0.00000e+00 
   @DF-RKS iter   1: -2613.11243772753278    1.75436e+00   3.57043e-03 DIIS
   @DF-RKS iter   2: -2610.71643979238434    2.39600e+00   4.99095e-03 DIIS
   @DF-RKS iter   3: -2610.08446668512352    6.31973e-01   3.03756e-03 DIIS
   @DF-RKS iter   4: -2611.45271116392951   -1.36824e+00   2.40244e-03 DIIS
   @DF-RKS iter   5: -2615.43440756760128   -3.98170e+00   5.56624e-04 DIIS
   @DF-RKS iter   6: -2615.46107724593594   -2.66697e-02   4.05690e-04 DIIS
   @DF-RKS iter   7: -2615.48586423689494   -2.47870e-02   1.38078e-04 DIIS
   @DF-RKS iter   8: -2615.48905988833985   -3.19565e-03   4.32357e-05 DIIS
   @DF-RKS iter   9: -2615.48929310347876   -2.33215e-04   2.70288e-05 DIIS
   @DF-RKS iter  10: -2615.48942692359833   -1.33820e-04   1.00262e-05 DIIS
   @DF-RKS iter  11: -2615.48944471298319   -1.77894e-05   7.75113e-06 DIIS
   @DF-RKS iter  12: -2615.48946186170542   -1.71487e-05   3.13068e-06 DIIS
   @DF-RKS iter  13: -2615.48946437449240   -2.51279e-06   1.83976e-06 DIIS
   @DF-RKS iter  14: -2615.48946508229801   -7.07806e-07   7.43109e-07 DIIS
   @DF-RKS iter  15: -2615.48946518740922   -1.05111e-07   2.80736e-07 DIIS
   @DF-RKS iter  16: -2615.48946520089567   -1.34864e-08   1.18005e-07 DIIS
   @DF-RKS iter  17: -2615.48946520329264   -2.39697e-09   4.75304e-08 DIIS
   @DF-RKS iter  18: -2615.48946520362369   -3.31056e-10   2.37450e-08 DIIS
   @DF-RKS iter  19: -2615.48946520369736   -7.36691e-11   9.62974e-09 DIIS

  DF guess converged.

  ==> DirectJK: Integral-Direct J/K Matrices <==

    J tasked:                  Yes
    K tasked:                  Yes
    wK tasked:                  No
    Integrals threads:           8
    Schwarz Cutoff:          1E-12

   @RKS iter  20: -2615.49007518965664   -2.61549e+03   3.56870e-07 DIIS
   @RKS iter  21: -2615.49007522603188   -3.63752e-08   1.30152e-07 DIIS
   @RKS iter  22: -2615.49007522610873   -7.68523e-11   1.40590e-07 DIIS
   @RKS iter  23: -2615.49007522886268   -2.75395e-09   5.75903e-08 DIIS
   @RKS iter  24: -2615.49007522935472   -4.92037e-10   1.22347e-08 DIIS
   @RKS iter  25: -2615.49007522937882   -2.41016e-11   2.62378e-09 DIIS
  Energy and wave function converged.


  ==> Post-Iterations <==

    Orbital Energies [Eh]
    ---------------------

    Doubly Occupied:                                                      

       1A    -19.140450     2A    -19.140428     3A    -19.140408  
       4A    -14.480596     5A    -14.410013     6A    -14.409964  
       7A    -14.409825     8A    -14.368406     9A    -14.368363  
      10A    -14.368223    11A    -14.368114    12A    -14.368103  
      13A    -14.368028    14A    -10.359344    15A    -10.359124  
      16A    -10.359038    17A    -10.317883    18A    -10.317877  
      19A    -10.317871    20A    -10.313828    21A    -10.313797  
      22A    -10.313740    23A    -10.232196    24A    -10.232191  
      25A    -10.232106    26A    -10.227936    27A    -10.227923  
      28A    -10.227912    29A    -10.225761    30A    -10.225742  
      31A    -10.225654    32A    -10.223366    33A    -10.223348  
      34A    -10.223348    35A    -10.219864    36A    -10.219862  
      37A    -10.219738    38A    -10.219526    39A    -10.219525  
      40A    -10.219480    41A    -10.219415    42A    -10.219385  
      43A    -10.219254    44A    -10.213851    45A    -10.213759  
      46A    -10.213436    47A    -10.211277    48A    -10.211012  
      49A    -10.210831    50A    -10.209979    51A    -10.209841  
      52A    -10.209769    53A    -10.209749    54A    -10.209684  
      55A    -10.209645    56A    -10.203672    57A    -10.203623  
      58A    -10.203579    59A    -10.201918    60A    -10.201898  
      61A    -10.201769    62A     -1.152229    63A     -1.088980  
      64A     -1.088911    65A     -1.088775    66A     -1.061983  
      67A     -1.061945    68A     -0.986472    69A     -0.979103  
      70A     -0.979075    71A     -0.978992    72A     -0.975092  
      73A     -0.975010    74A     -0.913478    75A     -0.898763  
      76A     -0.898753    77A     -0.898279    78A     -0.835400  
      79A     -0.835347    80A     -0.835166    81A     -0.822550  
      82A     -0.820522    83A     -0.820440    84A     -0.804829  
      85A     -0.804693    86A     -0.804602    87A     -0.783873  
      88A     -0.783791    89A     -0.782598    90A     -0.769103  
      91A     -0.767334    92A     -0.767271    93A     -0.752195  
      94A     -0.751438    95A     -0.751368    96A     -0.724995  
      97A     -0.724882    98A     -0.723935    99A     -0.690475  
     100A     -0.690318   101A     -0.681263   102A     -0.662471  
     103A     -0.662416   104A     -0.651437   105A     -0.651364  
     106A     -0.648485   107A     -0.640824   108A     -0.638621  
     109A     -0.638566   110A     -0.626515   111A     -0.626495  
     112A     -0.625930   113A     -0.605438   114A     -0.605224  
     115A     -0.603485   116A     -0.597357   117A     -0.597265  
     118A     -0.570360   119A     -0.566631   120A     -0.562292  
     121A     -0.554856   122A     -0.554798   123A     -0.538874  
     124A     -0.535413   125A     -0.535295   126A     -0.524119  
     127A     -0.506732   128A     -0.506706   129A     -0.494971  
     130A     -0.494953   131A     -0.494791   132A     -0.489528  
     133A     -0.489501   134A     -0.489237   135A     -0.485404  
     136A     -0.485243   137A     -0.483498   138A     -0.472747  
     139A     -0.472679   140A     -0.470161   141A     -0.469012  
     142A     -0.468640   143A     -0.458485   144A     -0.458437  
     145A     -0.458366   146A     -0.457426   147A     -0.456761  
     148A     -0.456686   149A     -0.451144   150A     -0.451091  
     151A     -0.450778   152A     -0.437788   153A     -0.435501  
     154A     -0.435445   155A     -0.423816   156A     -0.406715  
     157A     -0.406639   158A     -0.402963   159A     -0.398663  
     160A     -0.398563   161A     -0.385961   162A     -0.379734  
     163A     -0.379656   164A     -0.372930   165A     -0.371153  
     166A     -0.370937   167A     -0.370222   168A     -0.366827  
     169A     -0.366773   170A     -0.356142   171A     -0.356120  
     172A     -0.355997   173A     -0.350351   174A     -0.346675  
     175A     -0.346089   176A     -0.345783   177A     -0.344061  
     178A     -0.343963   179A     -0.294678   180A     -0.294143  
     181A     -0.293723   182A     -0.289763   183A     -0.289171  
     184A     -0.288256   185A     -0.287155   186A     -0.287037  
     187A     -0.285084   188A     -0.284429   189A     -0.283960  
     190A     -0.283798   191A     -0.282241   192A     -0.282010  
     193A     -0.280723   194A     -0.273939   195A     -0.270945  
     196A     -0.270892   197A     -0.259845   198A     -0.245639  
     199A     -0.245616   200A     -0.245509   201A     -0.209002  
     202A     -0.208859   203A     -0.208792  

    Virtual:                                                              

     204A     -0.130841   205A     -0.098205   206A     -0.098185  
     207A     -0.062092   208A     -0.061393   209A     -0.061340  
     210A     -0.045610   211A     -0.045592   212A     -0.045409  
     213A     -0.038893   214A     -0.038782   215A     -0.032529  
     216A     -0.023616   217A     -0.022531   218A     -0.022497  
     219A      0.018306   220A      0.018384   221A      0.036904  
     222A      0.037327   223A      0.037764   224A      0.038352  
     225A      0.064138   226A      0.064684   227A      0.065144  
     228A      0.070365   229A      0.070463   230A      0.106205  
     231A      0.108713   232A      0.109032   233A      0.112695  
     234A      0.113772   235A      0.113813   236A      0.122209  
     237A      0.125995   238A      0.126028   239A      0.126131  
     240A      0.138047   241A      0.138246   242A      0.138388  
     243A      0.139720   244A      0.139844   245A      0.141158  
     246A      0.145115   247A      0.157636   248A      0.158048  
     249A      0.164467   250A      0.166136   251A      0.166614  
     252A      0.167148   253A      0.169521   254A      0.170293  
     255A      0.170844   256A      0.175078   257A      0.175812  
     258A      0.177271   259A      0.177520   260A      0.177598  
     261A      0.195055   262A      0.204734   263A      0.204929  
     264A      0.208153   265A      0.209242   266A      0.209579  
     267A      0.213778   268A      0.224210   269A      0.224413  
     270A      0.237605   271A      0.237628   272A      0.237770  
     273A      0.245052   274A      0.245601   275A      0.245686  
     276A      0.251031   277A      0.258619   278A      0.258828  
     279A      0.262440   280A      0.264369   281A      0.264420  
     282A      0.276384   283A      0.276573   284A      0.280341  
     285A      0.283143   286A      0.283351   287A      0.289167  
     288A      0.297906   289A      0.299790   290A      0.299982  
     291A      0.300576   292A      0.303049   293A      0.303266  
     294A      0.309761   295A      0.322952   296A      0.323036  
     297A      0.331476   298A      0.331571   299A      0.333950  
     300A      0.335139   301A      0.335380   302A      0.355621  
     303A      0.357527   304A      0.357775   305A      0.374494  
     306A      0.386033   307A      0.386131   308A      0.388631  
     309A      0.390286   310A      0.390905   311A      0.394396  
     312A      0.394561   313A      0.399293   314A      0.406839  
     315A      0.421621   316A      0.421761   317A      0.431058  
     318A      0.431334   319A      0.431405   320A      0.438003  
     321A      0.449385   322A      0.463181   323A      0.471824  
     324A      0.471987   325A      0.481293   326A      0.482130  
     327A      0.491624   328A      0.493326   329A      0.494660  
     330A      0.497423   331A      0.498176   332A      0.501619  
     333A      0.502141   334A      0.506072   335A      0.510093  
     336A      0.511697   337A      0.516059   338A      0.516186  
     339A      0.517314   340A      0.520104   341A      0.520277  
     342A      0.523120   343A      0.526427   344A      0.528848  
     345A      0.530457   346A      0.535469   347A      0.535712  
     348A      0.542347   349A      0.544312   350A      0.551622  
     351A      0.552031   352A      0.553450   353A      0.559723  
     354A      0.559802   355A      0.563063   356A      0.564918  
     357A      0.565789   358A      0.577662   359A      0.577905  
     360A      0.579251   361A      0.584367   362A      0.585054  
     363A      0.585634   364A      0.588118   365A      0.590370  
     366A      0.591228   367A      0.593434   368A      0.594430  
     369A      0.595003   370A      0.599273   371A      0.599525  
     372A      0.603662   373A      0.604059   374A      0.604825  
     375A      0.608583   376A      0.609398   377A      0.609674  
     378A      0.613204   379A      0.613757   380A      0.614006  
     381A      0.616619   382A      0.617415   383A      0.617708  
     384A      0.626111   385A      0.629307   386A      0.631427  
     387A      0.632056   388A      0.635100   389A      0.637704  
     390A      0.637997   391A      0.645370   392A      0.646854  
     393A      0.647155   394A      0.653315   395A      0.653628  
     396A      0.669713   397A      0.669883   398A      0.670372  
     399A      0.679602   400A      0.680551   401A      0.680613  
     402A      0.681066   403A      0.681464   404A      0.681549  
     405A      0.693239   406A      0.694507   407A      0.694979  
     408A      0.702545   409A      0.702653   410A      0.708000  
     411A      0.708454   412A      0.708766   413A      0.718287  
     414A      0.734330   415A      0.734996   416A      0.735038  
     417A      0.745740   418A      0.745982   419A      0.746360  
     420A      0.748424   421A      0.760188   422A      0.760581  
     423A      0.778432   424A      0.779124   425A      0.779229  
     426A      0.779465   427A      0.781288   428A      0.782324  
     429A      0.783996   430A      0.807219   431A      0.807403  
     432A      0.808343   433A      0.811568   434A      0.812988  
     435A      0.817480   436A      0.821408   437A      0.821873  
     438A      0.822395   439A      0.823114   440A      0.825930  
     441A      0.827488   442A      0.832996   443A      0.837666  
     444A      0.839405   445A      0.840898   446A      0.842377  
     447A      0.846744   448A      0.852447   449A      0.852954  
     450A      0.853619   451A      0.856216   452A      0.857478  
     453A      0.857767   454A      0.872207   455A      0.877915  
     456A      0.877925   457A      0.878111   458A      0.887318  
     459A      0.887424   460A      0.887706   461A      0.899975  
     462A      0.901197   463A      0.901472   464A      0.905011  
     465A      0.906003   466A      0.910556   467A      0.924863  
     468A      0.927419   469A      0.930374   470A      0.932119  
     471A      0.934543   472A      0.939898   473A      0.941733  
     474A      0.942274   475A      0.943256   476A      0.944414  
     477A      0.944754   478A      0.946822   479A      0.954688  
     480A      0.954902   481A      0.965910   482A      0.966753  
     483A      0.967323   484A      0.977866   485A      0.978212  
     486A      0.983172   487A      0.987251   488A      0.988219  
     489A      0.989659   490A      0.995434   491A      0.995596  
     492A      1.001452   493A      1.011977   494A      1.015809  
     495A      1.016431   496A      1.024985   497A      1.025734  
     498A      1.025817   499A      1.028080   500A      1.031973  
     501A      1.032231   502A      1.056881   503A      1.057016  
     504A      1.070875   505A      1.074244   506A      1.074535  
     507A      1.082925   508A      1.083371   509A      1.083452  
     510A      1.084834   511A      1.095059   512A      1.109034  
     513A      1.109467   514A      1.110256   515A      1.120000  
     516A      1.120951   517A      1.121929   518A      1.122582  
     519A      1.123356   520A      1.127743   521A      1.129189  
     522A      1.130217   523A      1.148200   524A      1.162838  
     525A      1.163409   526A      1.176918   527A      1.177898  
     528A      1.179340   529A      1.185721   530A      1.185888  
     531A      1.186303   532A      1.206366   533A      1.207625  
     534A      1.207802   535A      1.208555   536A      1.222062  
     537A      1.223591   538A      1.223880   539A      1.236060  
     540A      1.236575   541A      1.257747   542A      1.268322  
     543A      1.268881   544A      1.269557   545A      1.273812  
     546A      1.275149   547A      1.291132   548A      1.292868  
     549A      1.309593   550A      1.315102   551A      1.315878  
     552A      1.339800   553A      1.364998   554A      1.370631  
     555A      1.371212   556A      1.398544   557A      1.399491  
     558A      1.416748   559A      1.424412   560A      1.433641  
     561A      1.445494   562A      1.446205   563A      1.462934  
     564A      1.463465   565A      1.493101   566A      1.513070  
     567A      1.513725   568A      1.534641   569A      1.535460  
     570A      1.590417   571A      1.623610   572A      1.626578  
     573A      1.629774   574A      1.640401   575A      1.644144  
     576A      1.645640   577A      1.717728   578A      1.717816  
     579A      1.718207   580A      1.798143   581A      1.798432  
     582A      1.903698   583A      1.913353   584A      1.913790  
     585A      1.924348   586A      1.926812   587A      1.927424  
     588A      1.979838   589A      1.980268   590A      1.997784  
     591A      1.999439   592A      2.001854   593A      2.026714  
     594A      2.033790   595A      2.034843   596A      2.049901  
     597A      2.223685  

    Final Occupation by Irrep:
              A 
    DOCC [   203 ]

  @RKS Final Energy: -2615.49007522937882

   => Energetics <=

    Nuclear Repulsion Energy =           6211.4394366162596270
    One-Electron Energy =              -15899.3467109871908178
    Two-Electron Energy =                7367.4075810038193595
    DFT Exchange-Correlation Energy =    -294.9903818622663039
    Empirical Dispersion Energy =           0.0000000000000000
    VV10 Nonlocal Energy =                  0.0000000000000000
    Total Energy =                      -2615.4900752293779078

Computation Completed


Properties will be evaluated at   0.000000,   0.000000,   0.000000 [a0]

Properties computed using the B3LYP density matrix

  Nuclear Dipole Moment: [e a0]
     X:    -3.1046      Y:     0.3864      Z:     0.5834

  Electronic Dipole Moment: [e a0]
     X:     2.5277      Y:    -0.3650      Z:    -0.5247

  Dipole Moment: [e a0]
     X:    -0.5769      Y:     0.0214      Z:     0.0587     Total:     0.5803

  Dipole Moment: [D]
     X:    -1.4663      Y:     0.0543      Z:     0.1492     Total:     1.4749


*** tstop() called on Rubens-MacBook-Pro-2.local at Thu Jan 28 17:49:11 2021
Module time:
	user time   =    5481.19 seconds =      91.35 minutes
	system time =     191.05 seconds =       3.18 minutes
	total time  =       1059 seconds =      17.65 minutes
Total time:
	user time   =    5481.19 seconds =      91.35 minutes
	system time =     191.05 seconds =       3.18 minutes
	total time  =       1059 seconds =      17.65 minutes

*** tstart() called on Rubens-MacBook-Pro-2.local
*** at Thu Jan 28 17:49:11 2021

   => Loading Basis Set <=

    Name: 6-31G
    Role: ORBITAL
    Keyword: BASIS
    atoms 1, 6-9, 11, 15, 48, 50, 75                                                                                            entry N          line   102 file /opt/anaconda3/envs/p4env/share/psi4/basis/6-31g.gbs 
    atoms 2-5, 10, 12-14, 16, 18-21, 23-24, 27-28, 30, 33-35, 37, 39, 42-44, 46, 49, 52-53, 55-63, 65, 67, 69, 71-72, 77-79, 81 entry C          line    87 file /opt/anaconda3/envs/p4env/share/psi4/basis/6-31g.gbs 
    atoms 17, 22, 25-26, 29, 31-32, 36, 38, 40-41, 45, 54, 64, 66, 68, 70, 73, 76, 80, 82-85                                    entry H          line    26 file /opt/anaconda3/envs/p4env/share/psi4/basis/6-31g.gbs 
    atoms 47, 51, 74                                                                                                            entry O          line   117 file /opt/anaconda3/envs/p4env/share/psi4/basis/6-31g.gbs 


         ---------------------------------------------------------
                                   SCF
               by Justin Turney, Rob Parrish, Andy Simmonett
                          and Daniel G. A. Smith
                              RKS Reference
                        8 Threads,   7629 MiB Core
         ---------------------------------------------------------

  ==> Geometry <==

    Molecular point group: c1
    Full point group: C1

    Geometry (in Angstrom), charge = 0, multiplicity = 1:

       Center              X                  Y                   Z               Mass       
    ------------   -----------------  -----------------  -----------------  -----------------
         N            0.144239390877    -2.375144276013    -0.057267793290    14.003074004430
         C            0.198558008981    -2.311912490736     1.271760448003    12.000000000000
         C            0.118758826527    -1.241494104628    -0.729270433439    12.000000000000
         C            0.008152337844    -0.034438103738    -2.648524171384    12.000000000000
         C            0.279006483249     2.225178367943     1.277089905993    12.000000000000
         N            0.161778666232    -0.041072734669    -0.033348304816    14.003074004430
         N            0.049307795342    -1.220450512902    -2.045552911169    14.003074004430
         N            0.184268298027     2.293742455243    -0.048783758409    14.003074004430
         N            0.243909070831    -1.194661066183     1.994049835362    14.003074004430
         C            0.207855148958    -3.574610633450     2.001218805160    12.000000000000
         N            0.299404880019     1.104718338975     1.996089630364    14.003074004430
         C            0.236290750001    -0.043675582339     1.352592856019    12.000000000000
         C            0.368611788970     3.485658111784     2.004684811204    12.000000000000
         C            0.127594130984     1.162854959937    -0.722920231508    12.000000000000
         N            0.042469592646     1.148201149087    -2.037587749137    14.003074004430
         C           -0.082004191586    -0.022848768583    -4.103956250904    12.000000000000
         H            0.242417187736    -4.759594572920     0.227216050045     1.007825032230
         C            0.209843835807    -3.577861178766     3.397384074196    12.000000000000
         C            0.208996859032    -5.986492706285     3.388180269317    12.000000000000
         C            0.225662286090    -4.784154462620     1.305281597689    12.000000000000
         C            0.227022326787    -7.235946281784     4.202179602441    12.000000000000
         H            0.278108860586    -6.904200666586     1.434379882639     1.007825032230
         C            0.227394779601    -5.980018024027     1.993263482931    12.000000000000
         C            0.215143900846    -4.774887358012     4.079718902659    12.000000000000
         H            0.209418336344    -2.633670267210     3.917988716213     1.007825032230
         H            0.224804459969    -4.801823193387     5.158950659766     1.007825032230
         C           -0.072017030317    -1.218399372177    -4.824435641098    12.000000000000
         C           -0.156895845750    -1.189750471394    -6.199925713671    12.000000000000
         H           -0.398697307647     2.167375394226    -6.655888610552     1.007825032230
         C           -0.192937741453     1.193039858709    -4.780294123525    12.000000000000
         H            0.000458503459    -2.148958262711    -4.284567970543     1.007825032230
         H           -0.217264711242     2.104015806216    -4.203675097538     1.007825032230
         C           -0.275084206655     1.216302400003    -6.156729937158    12.000000000000
         C           -0.243836736428     0.024464967705    -6.881274643983    12.000000000000
         C           -0.347197228311    -0.026526712177    -8.368495687798    12.000000000000
         H           -0.158681629798    -2.101853683577    -6.777557496734     1.007825032230
         C            0.641358294428     7.209218983140     4.080694555736    12.000000000000
         H            0.359073530911     6.836324989843     1.504824838967     1.007825032230
         C            0.396521974648     5.885560019005     2.014915404711    12.000000000000
         H            0.790177909397     4.641282891216     5.150696302048     1.007825032230
         H            0.190161975015     4.684356152104     0.246713875280     1.007825032230
         C            0.540230643618     5.884747779376     3.402486599472    12.000000000000
         C            0.536505505832     3.479906452617     3.390121522643    12.000000000000
         C            0.622778839198     4.669635554144     4.082894206701    12.000000000000
         H            0.601748132999     2.531036198869     3.898508210949     1.007825032230
         C            0.306152810725     4.699867868109     1.318560689659    12.000000000000
         O            0.710056271150    -7.295913553348     5.311474930700    15.994914619570
         N           -0.370415827351    -8.311848044712     3.590950015549    14.003074004430
         C           -0.542627382114   -11.834446603946     5.355071319726    12.000000000000
         N            0.160003124049     1.083668407568    -8.999351320935    14.003074004430
         O           -0.824078011489    -0.964609711606    -8.968334985926    15.994914619570
         C           -1.261232303271    10.516404126471    12.545207128977    12.000000000000
         C            0.140896190067     1.248467797895   -10.327633648330    12.000000000000
         H            0.634360501374    11.356040302842     7.150551540572     1.007825032230
         C            0.086895710546     1.361012452304   -11.528340148003    12.000000000000
         C            0.258346248209    10.452683834863     7.616819060426    12.000000000000
         C           -2.630640679211   -16.043885685490     3.228640096091    12.000000000000
         C           -0.453841713077    -9.519233291478     4.163249866305    12.000000000000
         C            0.038534993323     1.528880988984   -12.916015098561    12.000000000000
         C           -2.108868784738   -14.978240060979     3.761805649771    12.000000000000
         C            0.433520107021     2.629925844885   -13.525909446088    12.000000000000
         C           -0.511631606096    10.479211358856    10.082280853391    12.000000000000
         C           -0.487602086260   -10.584443777772     4.730352780180    12.000000000000
         H           -0.349458531014     0.694224633934   -13.488445224784     1.007825032230
         C            0.803630556390     3.685833137202   -14.113781202279    12.000000000000
         H           -0.572123153136    10.308066857344    13.349106392824     1.007825032230
         C            1.167461623860     4.750806929128   -14.710760404809    12.000000000000
         H            0.850413177876     6.648301009507   -15.503202695105     1.007825032230
         C           -1.596477062229   -13.933961071408     4.281265617443    12.000000000000
         H           -3.671758216082   -16.293472227970     3.363271412852     1.007825032230
         C            1.540019330758     5.839045920564   -15.318274720637    12.000000000000
         C           -1.083268390824   -12.902907988090     4.801911927641    12.000000000000
         H           -2.043281691657   -16.723670253387     2.630959000097     1.007825032230
         O            1.079714800484     8.199713225462     3.538460721184    15.994914619570
         N            0.176075875490     7.210311767571     5.373472462554    14.003074004430
         H           -0.105002797806   -11.893666621022     6.345229549255     1.007825032230
         C            0.184998330238     8.298037798002     6.153712109804    12.000000000000
         C           -0.137193794313    10.465819536467     8.875187678062    12.000000000000
         C            0.227546078116     9.307295632806     6.814834577512    12.000000000000
         H           -2.279263867742    10.738842634112    12.825566464677     1.007825032230
         C           -0.883009827260    10.499801144867    11.300697193129    12.000000000000
         H            2.553002702959     5.977801647398   -15.663422400218     1.007825032230
         H           -0.243464463071     6.374367939548     5.757139788050     1.007825032230
         H            0.612875312438     1.805911823486    -8.455924823769     1.007825032230
         H           -0.821267115028    -8.195519227711     2.693676174655     1.007825032230

  Running in c1 symmetry.

  Rotational constants: A =      0.00050  B =      0.00048  C =      0.00025 [cm^-1]
  Rotational constants: A =     15.00668  B =     14.52824  C =      7.43781 [MHz]
  Nuclear repulsion = 6211.436332023372415

  Charge       = 0
  Multiplicity = 1
  Electrons    = 406
  Nalpha       = 203
  Nbeta        = 203

  ==> Algorithm <==

  SCF Algorithm Type is DIRECT.
  DIIS enabled.
  MOM disabled.
  Fractional occupation disabled.
  Guess Type is SAD.
  Energy threshold   = 1.00e-06
  Density threshold  = 1.00e-08
  Integral threshold = 0.00e+00

  ==> Primary Basis <==

  Basis Set: 6-31G
    Blend: 6-31G
    Number of shells: 353
    Number of basis function: 597
    Number of Cartesian functions: 597
    Spherical Harmonics?: false
    Max angular momentum: 1

  ==> DFT Potential <==

   => Composite Functional: B3LYP <= 

    B3LYP Hyb-GGA Exchange-Correlation Functional

    P. J. Stephens, F. J. Devlin, C. F. Chabalowski, and M. J. Frisch, J. Phys. Chem. 98, 11623 (1994)

    Deriv               =              1
    GGA                 =           TRUE
    Meta                =          FALSE

    Exchange Hybrid     =           TRUE
    MP2 Hybrid          =          FALSE

   => Exchange Functionals <=

    0.0800   Slater exchange
    0.7200         Becke 88

   => Exact (HF) Exchange <=

    0.2000               HF 

   => Correlation Functionals <=

    0.1900   Vosko, Wilk & Nusair (VWN5_RPA)
    0.8100   Lee, Yang & Parr

   => Molecular Quadrature <=

    Radial Scheme          =       TREUTLER
    Pruning Scheme         =           FLAT
    Nuclear Scheme         =       TREUTLER

    BS radius alpha        =              1
    Pruning alpha          =              1
    Radial Points          =             75
    Spherical Points       =            302
    Total Points           =        1877002
    Total Blocks           =          13965
    Max Points             =            256
    Max Functions          =            219

   => Loading Basis Set <=

    Name: (6-31G AUX)
    Role: JKFIT
    Keyword: DF_BASIS_SCF
    atoms 1, 6-9, 11, 15, 48, 50, 75                                                                                            entry N          line   171 file /opt/anaconda3/envs/p4env/share/psi4/basis/cc-pvdz-jkfit.gbs 
    atoms 2-5, 10, 12-14, 16, 18-21, 23-24, 27-28, 30, 33-35, 37, 39, 42-44, 46, 49, 52-53, 55-63, 65, 67, 69, 71-72, 77-79, 81 entry C          line   121 file /opt/anaconda3/envs/p4env/share/psi4/basis/cc-pvdz-jkfit.gbs 
    atoms 17, 22, 25-26, 29, 31-32, 36, 38, 40-41, 45, 54, 64, 66, 68, 70, 73, 76, 80, 82-85                                    entry H          line    51 file /opt/anaconda3/envs/p4env/share/psi4/basis/cc-pvdz-jkfit.gbs 
    atoms 47, 51, 74                                                                                                            entry O          line   221 file /opt/anaconda3/envs/p4env/share/psi4/basis/cc-pvdz-jkfit.gbs 

  Starting with a DF guess...

  ==> Pre-Iterations <==

   -------------------------------------------------------
    Irrep   Nso     Nmo     Nalpha   Nbeta   Ndocc  Nsocc
   -------------------------------------------------------
     A        597     597       0       0       0       0
   -------------------------------------------------------
    Total     597     597     203     203     203       0
   -------------------------------------------------------

  ==> Integral Setup <==

  Perturbing V by 0.001000 mu(x).
  DFHelper Memory: AOs need 4.676 GiB; user supplied 4.676 GiB. Using in-core AOs.

  ==> MemDFJK: Density-Fitted J/K Matrices <==

    J tasked:                   Yes
    K tasked:                   Yes
    wK tasked:                   No
    OpenMP threads:               8
    Memory [MiB]:              4788
    Algorithm:                 Disk
    Schwarz Cutoff:           1E-12
    Mask sparsity (%):      70.4578
    Fitting Condition:        1E-10

   => Auxiliary Basis Set <=

  Basis Set: (6-31G AUX)
    Blend: CC-PVDZ-JKFIT
    Number of shells: 1680
    Number of basis function: 5541
    Number of Cartesian functions: 5541
    Spherical Harmonics?: false
    Max angular momentum: 3

  Cached 16.7% of DFT collocation blocks in 1.005 [GiB].

  Minimum eigenvalue in the overlap matrix is 6.4219599452E-05.
  Using Symmetric Orthogonalization.

  SCF Guess: Superposition of Atomic Densities via on-the-fly atomic UHF.

  ==> Iterations <==

                           Total Energy        Delta E     RMS |[F,P]|

   @DF-RKS iter SAD: -2614.86679387477852   -2.61487e+03   0.00000e+00 
   @DF-RKS iter   1: -2613.11267397826487    1.75412e+00   3.57088e-03 DIIS
   @DF-RKS iter   2: -2610.70836993566263    2.40430e+00   4.99447e-03 DIIS
   @DF-RKS iter   3: -2610.06898482165479    6.39385e-01   3.04413e-03 DIIS
   @DF-RKS iter   4: -2611.46949323661784   -1.40051e+00   2.39904e-03 DIIS
   @DF-RKS iter   5: -2615.43455083337676   -3.96506e+00   5.58073e-04 DIIS
   @DF-RKS iter   6: -2615.46110241130737   -2.65516e-02   4.09273e-04 DIIS
   @DF-RKS iter   7: -2615.48649967773281   -2.53973e-02   1.38623e-04 DIIS
   @DF-RKS iter   8: -2615.48972896909027   -3.22929e-03   4.41621e-05 DIIS
   @DF-RKS iter   9: -2615.48997827293897   -2.49304e-04   2.75033e-05 DIIS
   @DF-RKS iter  10: -2615.49011492187856   -1.36649e-04   1.11691e-05 DIIS
   @DF-RKS iter  11: -2615.49013843314469   -2.35113e-05   8.57656e-06 DIIS
   @DF-RKS iter  12: -2615.49015974446684   -2.13113e-05   3.28691e-06 DIIS
   @DF-RKS iter  13: -2615.49016241872641   -2.67426e-06   1.90775e-06 DIIS
   @DF-RKS iter  14: -2615.49016315686049   -7.38134e-07   7.54270e-07 DIIS
   @DF-RKS iter  15: -2615.49016326471792   -1.07857e-07   2.86988e-07 DIIS
   @DF-RKS iter  16: -2615.49016327874642   -1.40285e-08   1.21907e-07 DIIS
   @DF-RKS iter  17: -2615.49016328128391   -2.53749e-09   4.89051e-08 DIIS
   @DF-RKS iter  18: -2615.49016328162088   -3.36968e-10   2.49272e-08 DIIS
   @DF-RKS iter  19: -2615.49016328170910   -8.82210e-11   9.82414e-09 DIIS

  DF guess converged.

  ==> DirectJK: Integral-Direct J/K Matrices <==

    J tasked:                  Yes
    K tasked:                  Yes
    wK tasked:                  No
    Integrals threads:           8
    Schwarz Cutoff:          1E-12

   @RKS iter  20: -2615.49077327740724   -2.61549e+03   3.56847e-07 DIIS
   @RKS iter  21: -2615.49077331376566   -3.63584e-08   1.30331e-07 DIIS
   @RKS iter  22: -2615.49077331383978   -7.41238e-11   1.40880e-07 DIIS
   @RKS iter  23: -2615.49077331660874   -2.76896e-09   5.75118e-08 DIIS
   @RKS iter  24: -2615.49077331709941   -4.90672e-10   1.21884e-08 DIIS
   @RKS iter  25: -2615.49077331711669   -1.72804e-11   2.55447e-09 DIIS
  Energy and wave function converged.


  ==> Post-Iterations <==

    Orbital Energies [Eh]
    ---------------------

    Doubly Occupied:                                                      

       1A    -19.140857     2A    -19.140387     3A    -19.139942  
       4A    -14.480686     5A    -14.410253     6A    -14.409941  
       7A    -14.408994     8A    -14.368466     9A    -14.368422  
      10A    -14.368382    11A    -14.368254    12A    -14.368195  
      13A    -14.368093    14A    -10.359406    15A    -10.359245  
      16A    -10.359140    17A    -10.318257    18A    -10.317868  
      19A    -10.317383    20A    -10.313926    21A    -10.313883  
      22A    -10.313835    23A    -10.232942    24A    -10.231874  
      25A    -10.230418    26A    -10.228322    27A    -10.227842  
      28A    -10.227803    29A    -10.226655    30A    -10.225277  
      31A    -10.223692    32A    -10.223583    33A    -10.223314  
      34A    -10.223313    35A    -10.220877    36A    -10.220672  
      37A    -10.219911    38A    -10.219427    39A    -10.219276  
      40A    -10.219103    41A    -10.218803    42A    -10.217581  
      43A    -10.217027    44A    -10.214195    45A    -10.213855  
      46A    -10.213320    47A    -10.211330    48A    -10.211234  
      49A    -10.210883    50A    -10.210802    51A    -10.210185  
      52A    -10.209930    53A    -10.209589    54A    -10.209063  
      55A    -10.207284    56A    -10.204205    57A    -10.203468  
      58A    -10.203328    59A    -10.202171    60A    -10.200917  
      61A    -10.198988    62A     -1.152324    63A     -1.089313  
      64A     -1.088741    65A     -1.088505    66A     -1.062068  
      67A     -1.062052    68A     -0.986567    69A     -0.979463  
      70A     -0.979116    71A     -0.977994    72A     -0.975178  
      73A     -0.975115    74A     -0.913574    75A     -0.899072  
      76A     -0.898688    77A     -0.898280    78A     -0.836283  
      79A     -0.834893    80A     -0.833146    81A     -0.822604  
      82A     -0.820602    83A     -0.820382    84A     -0.805793  
      85A     -0.804125    86A     -0.802427    87A     -0.784135  
      88A     -0.783721    89A     -0.782653    90A     -0.769109  
      91A     -0.767473    92A     -0.766335    93A     -0.752248  
      94A     -0.751482    95A     -0.750683    96A     -0.725615  
      97A     -0.724214    98A     -0.722558    99A     -0.690613  
     100A     -0.689988   101A     -0.681087   102A     -0.662528  
     103A     -0.662500   104A     -0.651614   105A     -0.650994  
     106A     -0.648504   107A     -0.640811   108A     -0.638608  
     109A     -0.637068   110A     -0.626635   111A     -0.626490  
     112A     -0.625803   113A     -0.605449   114A     -0.604954  
     115A     -0.603186   116A     -0.597459   117A     -0.597232  
     118A     -0.570449   119A     -0.566728   120A     -0.562329  
     121A     -0.554967   122A     -0.554578   123A     -0.538665  
     124A     -0.535486   125A     -0.534183   126A     -0.524058  
     127A     -0.506923   128A     -0.506647   129A     -0.496308  
     130A     -0.494094   131A     -0.492181   132A     -0.490360  
     133A     -0.489051   134A     -0.487242   135A     -0.485594  
     136A     -0.485163   137A     -0.483528   138A     -0.472847  
     139A     -0.472766   140A     -0.470296   141A     -0.469028  
     142A     -0.468686   143A     -0.460022   144A     -0.457601  
     145A     -0.457235   146A     -0.456806   147A     -0.456610  
     148A     -0.455293   149A     -0.451435   150A     -0.450971  
     151A     -0.450748   152A     -0.437910   153A     -0.435743  
     154A     -0.435270   155A     -0.423899   156A     -0.406876  
     157A     -0.406603   158A     -0.403044   159A     -0.398859  
     160A     -0.398496   161A     -0.385921   162A     -0.379955  
     163A     -0.379030   164A     -0.372858   165A     -0.371371  
     166A     -0.370889   167A     -0.370125   168A     -0.366990  
     169A     -0.366263   170A     -0.357337   171A     -0.355352  
     172A     -0.353516   173A     -0.350442   174A     -0.346866  
     175A     -0.346023   176A     -0.344939   177A     -0.344150  
     178A     -0.343927   179A     -0.295226   180A     -0.294041  
     181A     -0.292536   182A     -0.289780   183A     -0.289201  
     184A     -0.288298   185A     -0.287282   186A     -0.286365  
     187A     -0.284881   188A     -0.284299   189A     -0.283903  
     190A     -0.283819   191A     -0.282207   192A     -0.281881  
     193A     -0.280801   194A     -0.274014   195A     -0.271137  
     196A     -0.270796   197A     -0.259944   198A     -0.246872  
     199A     -0.244812   200A     -0.242972   201A     -0.209757  
     202A     -0.208494   203A     -0.206986  

    Virtual:                                                              

     204A     -0.130926   205A     -0.098345   206A     -0.098185  
     207A     -0.062435   208A     -0.061272   209A     -0.059954  
     210A     -0.046801   211A     -0.044825   212A     -0.042938  
     213A     -0.039031   214A     -0.038462   215A     -0.032396  
     216A     -0.023735   217A     -0.022622   218A     -0.022472  
     219A      0.018145   220A      0.018544   221A      0.037088  
     222A      0.037455   223A      0.037987   224A      0.038863  
     225A      0.064487   226A      0.064866   227A      0.065292  
     228A      0.070216   229A      0.070598   230A      0.106288  
     231A      0.108487   232A      0.110011   233A      0.112781  
     234A      0.113624   235A      0.114465   236A      0.122215  
     237A      0.123873   238A      0.127709   239A      0.129938  
     240A      0.137998   241A      0.138170   242A      0.139205  
     243A      0.139585   244A      0.140115   245A      0.141180  
     246A      0.145016   247A      0.157537   248A      0.158054  
     249A      0.164407   250A      0.166163   251A      0.166569  
     252A      0.167623   253A      0.169625   254A      0.170318  
     255A      0.171261   256A      0.174944   257A      0.175889  
     258A      0.176468   259A      0.178091   260A      0.179770  
     261A      0.194947   262A      0.204520   263A      0.205053  
     264A      0.208068   265A      0.209174   266A      0.210397  
     267A      0.213685   268A      0.224131   269A      0.224308  
     270A      0.236080   271A      0.238750   272A      0.240731  
     273A      0.244977   274A      0.245460   275A      0.245803  
     276A      0.251021   277A      0.258517   278A      0.259047  
     279A      0.262525   280A      0.264539   281A      0.265944  
     282A      0.276269   283A      0.276512   284A      0.280252  
     285A      0.282940   286A      0.283440   287A      0.289112  
     288A      0.297705   289A      0.299445   290A      0.300872  
     291A      0.301618   292A      0.303081   293A      0.303799  
     294A      0.309876   295A      0.322816   296A      0.323075  
     297A      0.331103   298A      0.331897   299A      0.333699  
     300A      0.335420   301A      0.337481   302A      0.355588  
     303A      0.357424   304A      0.357777   305A      0.374479  
     306A      0.385684   307A      0.386729   308A      0.388949  
     309A      0.390248   310A      0.392216   311A      0.394382  
     312A      0.394694   313A      0.399700   314A      0.406736  
     315A      0.421454   316A      0.422078   317A      0.429993  
     318A      0.432027   319A      0.433774   320A      0.437919  
     321A      0.449335   322A      0.463146   323A      0.471644  
     324A      0.472124   325A      0.481235   326A      0.482005  
     327A      0.491588   328A      0.493213   329A      0.495006  
     330A      0.497757   331A      0.498585   332A      0.501413  
     333A      0.502931   334A      0.506407   335A      0.510322  
     336A      0.512076   337A      0.516064   338A      0.516774  
     339A      0.517977   340A      0.519944   341A      0.520840  
     342A      0.523678   343A      0.525992   344A      0.529411  
     345A      0.530492   346A      0.535506   347A      0.535618  
     348A      0.542275   349A      0.544529   350A      0.551462  
     351A      0.552798   352A      0.553566   353A      0.559513  
     354A      0.559965   355A      0.563173   356A      0.564769  
     357A      0.566458   358A      0.577604   359A      0.577745  
     360A      0.579202   361A      0.584501   362A      0.584950  
     363A      0.585524   364A      0.588134   365A      0.590240  
     366A      0.592142   367A      0.593520   368A      0.594301  
     369A      0.595643   370A      0.599148   371A      0.599481  
     372A      0.603617   373A      0.604067   374A      0.605266  
     375A      0.608577   376A      0.609469   377A      0.609782  
     378A      0.613312   379A      0.613817   380A      0.614602  
     381A      0.616724   382A      0.617696   383A      0.618157  
     384A      0.626254   385A      0.629324   386A      0.631347  
     387A      0.631983   388A      0.635118   389A      0.637635  
     390A      0.637899   391A      0.645342   392A      0.646724  
     393A      0.647105   394A      0.653302   395A      0.653514  
     396A      0.669110   397A      0.670314   398A      0.671833  
     399A      0.678818   400A      0.679896   401A      0.681281  
     402A      0.682197   403A      0.682327   404A      0.684216  
     405A      0.693230   406A      0.694412   407A      0.695507  
     408A      0.702413   409A      0.702672   410A      0.708019  
     411A      0.708331   412A      0.709171   413A      0.718246  
     414A      0.734278   415A      0.735290   416A      0.735876  
     417A      0.745835   418A      0.746014   419A      0.746714  
     420A      0.748472   421A      0.760052   422A      0.760665  
     423A      0.777979   424A      0.778434   425A      0.779941  
     426A      0.781481   427A      0.781729   428A      0.781851  
     429A      0.785610   430A      0.807067   431A      0.807436  
     432A      0.808327   433A      0.811555   434A      0.813050  
     435A      0.817379   436A      0.821276   437A      0.821754  
     438A      0.822362   439A      0.823070   440A      0.825885  
     441A      0.827689   442A      0.833052   443A      0.837586  
     444A      0.839456   445A      0.840903   446A      0.842192  
     447A      0.846827   448A      0.852553   449A      0.852902  
     450A      0.854146   451A      0.856137   452A      0.857495  
     453A      0.857738   454A      0.872114   455A      0.876098  
     456A      0.879293   457A      0.881429   458A      0.887123  
     459A      0.887490   460A      0.888618   461A      0.900007  
     462A      0.901312   463A      0.901928   464A      0.904962  
     465A      0.905975   466A      0.910547   467A      0.924965  
     468A      0.927189   469A      0.930548   470A      0.931855  
     471A      0.934438   472A      0.939838   473A      0.941047  
     474A      0.942800   475A      0.943593   476A      0.945159  
     477A      0.946608   478A      0.948105   479A      0.954520  
     480A      0.955091   481A      0.965533   482A      0.966839  
     483A      0.969037   484A      0.977751   485A      0.978294  
     486A      0.983333   487A      0.987111   488A      0.988632  
     489A      0.989847   490A      0.995392   491A      0.996298  
     492A      1.001438   493A      1.011876   494A      1.015719  
     495A      1.016281   496A      1.025002   497A      1.025559  
     498A      1.026744   499A      1.028097   500A      1.031797  
     501A      1.032294   502A      1.056725   503A      1.057118  
     504A      1.070869   505A      1.074070   506A      1.074934  
     507A      1.081694   508A      1.084086   509A      1.084801  
     510A      1.086313   511A      1.095171   512A      1.108776  
     513A      1.109659   514A      1.110776   515A      1.120522  
     516A      1.121115   517A      1.121859   518A      1.122754  
     519A      1.123269   520A      1.128028   521A      1.129719  
     522A      1.130068   523A      1.148125   524A      1.162651  
     525A      1.163438   526A      1.176859   527A      1.177776  
     528A      1.179344   529A      1.184476   530A      1.186716  
     531A      1.189081   532A      1.206310   533A      1.207764  
     534A      1.208405   535A      1.208862   536A      1.222050  
     537A      1.223571   538A      1.224630   539A      1.235956  
     540A      1.236839   541A      1.257851   542A      1.268192  
     543A      1.268661   544A      1.271109   545A      1.273906  
     546A      1.275125   547A      1.291162   548A      1.292791  
     549A      1.309596   550A      1.315077   551A      1.315888  
     552A      1.339757   553A      1.364915   554A      1.370547  
     555A      1.371171   556A      1.398588   557A      1.399405  
     558A      1.416683   559A      1.424397   560A      1.433633  
     561A      1.445357   562A      1.446510   563A      1.462840  
     564A      1.463427   565A      1.493026   566A      1.512983  
     567A      1.513616   568A      1.534553   569A      1.535395  
     570A      1.590379   571A      1.623354   572A      1.626739  
     573A      1.630101   574A      1.640457   575A      1.644034  
     576A      1.645794   577A      1.716637   578A      1.718950  
     579A      1.720131   580A      1.798053   581A      1.798320  
     582A      1.903598   583A      1.913381   584A      1.913599  
     585A      1.925739   586A      1.926497   587A      1.928045  
     588A      1.979742   589A      1.980168   590A      1.999075  
     591A      1.999762   592A      2.001262   593A      2.026706  
     594A      2.033735   595A      2.034910   596A      2.049825  
     597A      2.223583  

    Final Occupation by Irrep:
              A 
    DOCC [   203 ]

  @RKS Final Energy: -2615.49077331711669

   => Energetics <=

    Nuclear Repulsion Energy =           6211.4363320233724153
    One-Electron Energy =              -15899.4067154971380660
    Two-Electron Energy =                7367.4702494053499322
    DFT Exchange-Correlation Energy =    -294.9906392487001767
    Empirical Dispersion Energy =           0.0000000000000000
    VV10 Nonlocal Energy =                  0.0000000000000000
    Total Energy =                      -2615.4907733171166910

Computation Completed


Properties will be evaluated at   0.000000,   0.000000,   0.000000 [a0]

Properties computed using the B3LYP density matrix

  Nuclear Dipole Moment: [e a0]
     X:    -3.1046      Y:     0.3864      Z:     0.5834

  Electronic Dipole Moment: [e a0]
     X:     2.2853      Y:    -0.4983      Z:    -0.4583

  Dipole Moment: [e a0]
     X:    -0.8193      Y:    -0.1119      Z:     0.1251     Total:     0.8363

  Dipole Moment: [D]
     X:    -2.0824      Y:    -0.2845      Z:     0.3179     Total:     2.1257


*** tstop() called on Rubens-MacBook-Pro-2.local at Thu Jan 28 18:08:12 2021
Module time:
	user time   =    5402.39 seconds =      90.04 minutes
	system time =     244.35 seconds =       4.07 minutes
	total time  =       1141 seconds =      19.02 minutes
Total time:
	user time   =   10883.62 seconds =     181.39 minutes
	system time =     435.41 seconds =       7.26 minutes
	total time  =       2200 seconds =      36.67 minutes

*** tstart() called on Rubens-MacBook-Pro-2.local
*** at Thu Jan 28 18:08:12 2021

   => Loading Basis Set <=

    Name: 6-31G
    Role: ORBITAL
    Keyword: BASIS
    atoms 1, 6-9, 11, 15, 48, 50, 75                                                                                            entry N          line   102 file /opt/anaconda3/envs/p4env/share/psi4/basis/6-31g.gbs 
    atoms 2-5, 10, 12-14, 16, 18-21, 23-24, 27-28, 30, 33-35, 37, 39, 42-44, 46, 49, 52-53, 55-63, 65, 67, 69, 71-72, 77-79, 81 entry C          line    87 file /opt/anaconda3/envs/p4env/share/psi4/basis/6-31g.gbs 
    atoms 17, 22, 25-26, 29, 31-32, 36, 38, 40-41, 45, 54, 64, 66, 68, 70, 73, 76, 80, 82-85                                    entry H          line    26 file /opt/anaconda3/envs/p4env/share/psi4/basis/6-31g.gbs 
    atoms 47, 51, 74                                                                                                            entry O          line   117 file /opt/anaconda3/envs/p4env/share/psi4/basis/6-31g.gbs 


         ---------------------------------------------------------
                                   SCF
               by Justin Turney, Rob Parrish, Andy Simmonett
                          and Daniel G. A. Smith
                              RKS Reference
                        8 Threads,   7629 MiB Core
         ---------------------------------------------------------

  ==> Geometry <==

    Molecular point group: c1
    Full point group: C1

    Geometry (in Angstrom), charge = 0, multiplicity = 1:

       Center              X                  Y                   Z               Mass       
    ------------   -----------------  -----------------  -----------------  -----------------
         N            0.144239390877    -2.375144276013    -0.057267793290    14.003074004430
         C            0.198558008981    -2.311912490736     1.271760448003    12.000000000000
         C            0.118758826527    -1.241494104628    -0.729270433439    12.000000000000
         C            0.008152337844    -0.034438103738    -2.648524171384    12.000000000000
         C            0.279006483249     2.225178367943     1.277089905993    12.000000000000
         N            0.161778666232    -0.041072734669    -0.033348304816    14.003074004430
         N            0.049307795342    -1.220450512902    -2.045552911169    14.003074004430
         N            0.184268298027     2.293742455243    -0.048783758409    14.003074004430
         N            0.243909070831    -1.194661066183     1.994049835362    14.003074004430
         C            0.207855148958    -3.574610633450     2.001218805160    12.000000000000
         N            0.299404880019     1.104718338975     1.996089630364    14.003074004430
         C            0.236290750001    -0.043675582339     1.352592856019    12.000000000000
         C            0.368611788970     3.485658111784     2.004684811204    12.000000000000
         C            0.127594130984     1.162854959937    -0.722920231508    12.000000000000
         N            0.042469592646     1.148201149087    -2.037587749137    14.003074004430
         C           -0.082004191586    -0.022848768583    -4.103956250904    12.000000000000
         H            0.242417187736    -4.759594572920     0.227216050045     1.007825032230
         C            0.209843835807    -3.577861178766     3.397384074196    12.000000000000
         C            0.208996859032    -5.986492706285     3.388180269317    12.000000000000
         C            0.225662286090    -4.784154462620     1.305281597689    12.000000000000
         C            0.227022326787    -7.235946281784     4.202179602441    12.000000000000
         H            0.278108860586    -6.904200666586     1.434379882639     1.007825032230
         C            0.227394779601    -5.980018024027     1.993263482931    12.000000000000
         C            0.215143900846    -4.774887358012     4.079718902659    12.000000000000
         H            0.209418336344    -2.633670267210     3.917988716213     1.007825032230
         H            0.224804459969    -4.801823193387     5.158950659766     1.007825032230
         C           -0.072017030317    -1.218399372177    -4.824435641098    12.000000000000
         C           -0.156895845750    -1.189750471394    -6.199925713671    12.000000000000
         H           -0.398697307647     2.167375394226    -6.655888610552     1.007825032230
         C           -0.192937741453     1.193039858709    -4.780294123525    12.000000000000
         H            0.000458503459    -2.148958262711    -4.284567970543     1.007825032230
         H           -0.217264711242     2.104015806216    -4.203675097538     1.007825032230
         C           -0.275084206655     1.216302400003    -6.156729937158    12.000000000000
         C           -0.243836736428     0.024464967705    -6.881274643983    12.000000000000
         C           -0.347197228311    -0.026526712177    -8.368495687798    12.000000000000
         H           -0.158681629798    -2.101853683577    -6.777557496734     1.007825032230
         C            0.641358294428     7.209218983140     4.080694555736    12.000000000000
         H            0.359073530911     6.836324989843     1.504824838967     1.007825032230
         C            0.396521974648     5.885560019005     2.014915404711    12.000000000000
         H            0.790177909397     4.641282891216     5.150696302048     1.007825032230
         H            0.190161975015     4.684356152104     0.246713875280     1.007825032230
         C            0.540230643618     5.884747779376     3.402486599472    12.000000000000
         C            0.536505505832     3.479906452617     3.390121522643    12.000000000000
[...]
    atoms 17, 22, 25-26, 29, 31-32, 36, 38, 40-41, 45, 54, 64, 66, 68, 70, 73, 76, 80, 82-85                                    entry H          line    51 file /opt/anaconda3/envs/p4env/share/psi4/basis/cc-pvdz-jkfit.gbs 
    atoms 47, 51, 74                                                                                                            entry O          line   221 file /opt/anaconda3/envs/p4env/share/psi4/basis/cc-pvdz-jkfit.gbs 

  Starting with a DF guess...

  ==> Pre-Iterations <==

   -------------------------------------------------------
    Irrep   Nso     Nmo     Nalpha   Nbeta   Ndocc  Nsocc
   -------------------------------------------------------
     A        597     597       0       0       0       0
   -------------------------------------------------------
    Total     597     597     203     203     203       0
   -------------------------------------------------------

  ==> Integral Setup <==

  Perturbing V by -0.002000 mu(z).
  DFHelper Memory: AOs need 4.676 GiB; user supplied 4.676 GiB. Using in-core AOs.

  ==> MemDFJK: Density-Fitted J/K Matrices <==

    J tasked:                   Yes
    K tasked:                   Yes
    wK tasked:                   No
    OpenMP threads:               8
    Memory [MiB]:              4788
    Algorithm:                 Disk
    Schwarz Cutoff:           1E-12
    Mask sparsity (%):      70.4578
    Fitting Condition:        1E-10

   => Auxiliary Basis Set <=

  Basis Set: (6-31G AUX)
    Blend: CC-PVDZ-JKFIT
    Number of shells: 1680
    Number of basis function: 5541
    Number of Cartesian functions: 5541
    Spherical Harmonics?: false
    Max angular momentum: 3

  Cached 16.7% of DFT collocation blocks in 1.005 [GiB].

  Minimum eigenvalue in the overlap matrix is 6.4219599451E-05.
  Using Symmetric Orthogonalization.

  SCF Guess: Superposition of Atomic Densities via on-the-fly atomic UHF.

  ==> Iterations <==

                           Total Energy        Delta E     RMS |[F,P]|

   @DF-RKS iter SAD: -2614.86679387659933   -2.61487e+03   0.00000e+00 
   @DF-RKS iter   1: -2613.11273267298293    1.75406e+00   3.57139e-03 DIIS
   @DF-RKS iter   2: -2610.73036224675661    2.38237e+00   5.00207e-03 DIIS
   @DF-RKS iter   3: -2613.25054771017176   -2.52019e+00   2.33248e-03 DIIS
   @DF-RKS iter   4: -2614.50949855675617   -1.25895e+00   1.32674e-03 DIIS
   @DF-RKS iter   5: -2615.44195855793714   -9.32460e-01   4.75137e-04 DIIS
   @DF-RKS iter   6: -2615.47606308072363   -3.41045e-02   2.80060e-04 DIIS
   @DF-RKS iter   7: -2615.48666195006081   -1.05989e-02   1.46064e-04 DIIS
   @DF-RKS iter   8: -2615.49040235160464   -3.74040e-03   7.00732e-05 DIIS
   @DF-RKS iter   9: -2615.49150978464013   -1.10743e-03   4.32423e-05 DIIS
   @DF-RKS iter  10: -2615.49203330358841   -5.23519e-04   1.57346e-05 DIIS
   @DF-RKS iter  11: -2615.49210062643806   -6.73228e-05   7.88292e-06 DIIS
   @DF-RKS iter  12: -2615.49211247920312   -1.18528e-05   2.72418e-06 DIIS
   @DF-RKS iter  13: -2615.49211380353609   -1.32433e-06   1.11448e-06 DIIS
   @DF-RKS iter  14: -2615.49211403362006   -2.30084e-07   5.81780e-07 DIIS
   @DF-RKS iter  15: -2615.49211409933832   -6.57183e-08   1.96319e-07 DIIS
   @DF-RKS iter  16: -2615.49211410430871   -4.97039e-09   1.27511e-07 DIIS
   @DF-RKS iter  17: -2615.49211410705311   -2.74440e-09   2.92528e-08 DIIS
   @DF-RKS iter  18: -2615.49211410716134   -1.08230e-10   1.91075e-08 DIIS
   @DF-RKS iter  19: -2615.49211410720045   -3.91083e-11   1.13566e-08 DIIS
   @DF-RKS iter  20: -2615.49211410722955   -2.91038e-11   2.54767e-09 DIIS

  DF guess converged.

  ==> DirectJK: Integral-Direct J/K Matrices <==

    J tasked:                  Yes
    K tasked:                  Yes
    wK tasked:                  No
    Integrals threads:           8
    Schwarz Cutoff:          1E-12

   @RKS iter  21: -2615.49272419135650   -2.61549e+03   3.56402e-07 DIIS
   @RKS iter  22: -2615.49272422772356   -3.63671e-08   1.28839e-07 DIIS
   @RKS iter  23: -2615.49272422790045   -1.76897e-10   1.37516e-07 DIIS
   @RKS iter  24: -2615.49272423048842   -2.58797e-09   5.85793e-08 DIIS
   @RKS iter  25: -2615.49272423098182   -4.93401e-10   1.29524e-08 DIIS
   @RKS iter  26: -2615.49272423100501   -2.31921e-11   3.08541e-09 DIIS
  Energy and wave function converged.


  ==> Post-Iterations <==

    Orbital Energies [Eh]
    ---------------------

    Doubly Occupied:                                                      

       1A    -19.169561     2A    -19.127963     3A    -19.123169  
       4A    -14.479848     5A    -14.441166     6A    -14.398366  
       7A    -14.390708     8A    -14.371479     9A    -14.371059  
      10A    -14.367288    11A    -14.366564    12A    -14.365200  
      13A    -14.364898    14A    -10.359996    15A    -10.359418  
      16A    -10.356236    17A    -10.346521    18A    -10.318753  
      19A    -10.310849    20A    -10.310012    21A    -10.305753  
      22A    -10.300832    23A    -10.272008    24A    -10.270710  
      25A    -10.264004    26A    -10.263527    27A    -10.254932  
      28A    -10.248433    29A    -10.246429    30A    -10.240959  
      31A    -10.237750    32A    -10.237674    33A    -10.228452  
      34A    -10.228291    35A    -10.226143    36A    -10.219745  
      37A    -10.218444    38A    -10.217267    39A    -10.216806  
      40A    -10.214990    41A    -10.212308    42A    -10.210606  
      43A    -10.208007    44A    -10.207769    45A    -10.206385  
      46A    -10.205599    47A    -10.205477    48A    -10.204182  
      49A    -10.203353    50A    -10.202923    51A    -10.200431  
      52A    -10.200371    53A    -10.195849    54A    -10.195382  
      55A    -10.190447    56A    -10.190279    57A    -10.188821  
      58A    -10.188175    59A    -10.179967    60A    -10.178693  
      61A    -10.168635    62A     -1.151664    63A     -1.118152  
      64A     -1.076513    65A     -1.071626    66A     -1.062551  
      67A     -1.060410    68A     -1.010831    69A     -0.985957  
      70A     -0.975257    71A     -0.973866    72A     -0.967009  
      73A     -0.959443    74A     -0.914946    75A     -0.912890  
      76A     -0.891315    77A     -0.889227    78A     -0.878809  
      79A     -0.849781    80A     -0.835377    81A     -0.821197  
      82A     -0.814846    83A     -0.813362    84A     -0.805450  
      85A     -0.804391    86A     -0.799017    87A     -0.790964  
      88A     -0.777142    89A     -0.775438    90A     -0.774139  
      91A     -0.772282    92A     -0.758837    93A     -0.757031  
      94A     -0.753569    95A     -0.742818    96A     -0.732369  
      97A     -0.712371    98A     -0.710843    99A     -0.698830  
     100A     -0.684870   101A     -0.680972   102A     -0.673684  
     103A     -0.666979   104A     -0.659206   105A     -0.657048  
     106A     -0.649381   107A     -0.640742   108A     -0.637768  
     109A     -0.629118   110A     -0.625330   111A     -0.623678  
     112A     -0.618387   113A     -0.609485   114A     -0.601831  
     115A     -0.594948   116A     -0.590684   117A     -0.584717  
     118A     -0.583903   119A     -0.571712   120A     -0.567290  
     121A     -0.566080   122A     -0.552047   123A     -0.543785  
     124A     -0.541275   125A     -0.534097   126A     -0.529988  
     127A     -0.521974   128A     -0.509803   129A     -0.508306  
     130A     -0.505786   131A     -0.503898   132A     -0.497106  
     133A     -0.489909   134A     -0.481180   135A     -0.478715  
     136A     -0.476784   137A     -0.474972   138A     -0.473752  
     139A     -0.473193   140A     -0.470475   141A     -0.469201  
     142A     -0.463749   143A     -0.462852   144A     -0.461007  
     145A     -0.458434   146A     -0.458274   147A     -0.447897  
     148A     -0.445204   149A     -0.445100   150A     -0.442187  
     151A     -0.437783   152A     -0.428159   153A     -0.424845  
     154A     -0.423857   155A     -0.421544   156A     -0.418643  
     157A     -0.416372   158A     -0.408992   159A     -0.401739  
     160A     -0.400986   161A     -0.391963   162A     -0.390038  
     163A     -0.388817   164A     -0.386645   165A     -0.377944  
     166A     -0.371051   167A     -0.368034   168A     -0.363669  
     169A     -0.362124   170A     -0.357774   171A     -0.351819  
     172A     -0.348250   173A     -0.344321   174A     -0.341892  
     175A     -0.341225   176A     -0.333169   177A     -0.332559  
     178A     -0.324947   179A     -0.324400   180A     -0.322559  
     181A     -0.309446   182A     -0.300882   183A     -0.292476  
     184A     -0.291411   185A     -0.291132   186A     -0.286467  
     187A     -0.281091   188A     -0.279780   189A     -0.277757  
     190A     -0.275845   191A     -0.274461   192A     -0.274101  
     193A     -0.271764   194A     -0.267221   195A     -0.261653  
     196A     -0.259920   197A     -0.259248   198A     -0.257258  
     199A     -0.249370   200A     -0.231482   201A     -0.213582  
     202A     -0.195103   203A     -0.181743  

    Virtual:                                                              

     204A     -0.132014   205A     -0.106928   206A     -0.095790  
     207A     -0.093981   208A     -0.091182   209A     -0.054821  
     210A     -0.050194   211A     -0.043336   212A     -0.038881  
     213A     -0.031329   214A     -0.027212   215A     -0.020489  
     216A     -0.014875   217A     -0.013901   218A     -0.012875  
     219A      0.001023   220A      0.005463   221A      0.027334  
     222A      0.036669   223A      0.040823   224A      0.049596  
     225A      0.060548   226A      0.062459   227A      0.072282  
     228A      0.073475   229A      0.075724   230A      0.078578  
     231A      0.084403   232A      0.090238   233A      0.095505  
     234A      0.115989   235A      0.118947   236A      0.120332  
     237A      0.123017   238A      0.123587   239A      0.125576  
     240A      0.133459   241A      0.137649   242A      0.138316  
     243A      0.145294   244A      0.148760   245A      0.149474  
     246A      0.151581   247A      0.155272   248A      0.155611  
     249A      0.164461   250A      0.165069   251A      0.165792  
     252A      0.166962   253A      0.172290   254A      0.172765  
     255A      0.174426   256A      0.178891   257A      0.181458  
     258A      0.184784   259A      0.189853   260A      0.190566  
     261A      0.190846   262A      0.195902   263A      0.207022  
     264A      0.208353   265A      0.211396   266A      0.214139  
     267A      0.216873   268A      0.220835   269A      0.223797  
     270A      0.224193   271A      0.227762   272A      0.229528  
     273A      0.240258   274A      0.250960   275A      0.254356  
     276A      0.254948   277A      0.256269   278A      0.261963  
     279A      0.264469   280A      0.268319   281A      0.272023  
     282A      0.272492   283A      0.276610   284A      0.278559  
     285A      0.281370   286A      0.285178   287A      0.291047  
     288A      0.292352   289A      0.293391   290A      0.296458  
     291A      0.303391   292A      0.309382   293A      0.312927  
     294A      0.313489   295A      0.319918   296A      0.328350  
     297A      0.330241   298A      0.334289   299A      0.335869  
     300A      0.343314   301A      0.346983   302A      0.347885  
     303A      0.355385   304A      0.361816   305A      0.363752  
     306A      0.366799   307A      0.373115   308A      0.385381  
     309A      0.389351   310A      0.397570   311A      0.403158  
     312A      0.403626   313A      0.407383   314A      0.409365  
     315A      0.418729   316A      0.421309   317A      0.435235  
     318A      0.439439   319A      0.442902   320A      0.445463  
     321A      0.453859   322A      0.459498   323A      0.462985  
     324A      0.465723   325A      0.467893   326A      0.475388  
     327A      0.481018   328A      0.482634   329A      0.487190  
     330A      0.489335   331A      0.493628   332A      0.494885  
     333A      0.502829   334A      0.506127   335A      0.510132  
     336A      0.513518   337A      0.514143   338A      0.520067  
     339A      0.520839   340A      0.523315   341A      0.527149  
     342A      0.529386   343A      0.531506   344A      0.533131  
     345A      0.537168   346A      0.540818   347A      0.542316  
     348A      0.543163   349A      0.544401   350A      0.546164  
     351A      0.550483   352A      0.554912   353A      0.557860  
     354A      0.559922   355A      0.561799   356A      0.567407  
     357A      0.568368   358A      0.570561   359A      0.571555  
     360A      0.573540   361A      0.574668   362A      0.582010  
     363A      0.584146   364A      0.586072   365A      0.587556  
     366A      0.591304   367A      0.594478   368A      0.595832  
     369A      0.596786   370A      0.600120   371A      0.600340  
     372A      0.604027   373A      0.604601   374A      0.605553  
     375A      0.608729   376A      0.610673   377A      0.611615  
     378A      0.615468   379A      0.618209   380A      0.620392  
     381A      0.624282   382A      0.628218   383A      0.628994  
     384A      0.629805   385A      0.630541   386A      0.631376  
     387A      0.633120   388A      0.633873   389A      0.637405  
     390A      0.638287   391A      0.643070   392A      0.644098  
     393A      0.645035   394A      0.647508   395A      0.649071  
     396A      0.652772   397A      0.655966   398A      0.660695  
     399A      0.670341   400A      0.682626   401A      0.683186  
     402A      0.691712   403A      0.693331   404A      0.693881  
     405A      0.694869   406A      0.697748   407A      0.703105  
     408A      0.705693   409A      0.708366   410A      0.714440  
     411A      0.716360   412A      0.716672   413A      0.719482  
     414A      0.721587   415A      0.725558   416A      0.733416  
     417A      0.740095   418A      0.744486   419A      0.747255  
     420A      0.752070   421A      0.758437   422A      0.759294  
     423A      0.765480   424A      0.768730   425A      0.778610  
     426A      0.785931   427A      0.793991   428A      0.798021  
     429A      0.798823   430A      0.801581   431A      0.807539  
     432A      0.808176   433A      0.810306   434A      0.810702  
     435A      0.817162   436A      0.820155   437A      0.822021  
     438A      0.822558   439A      0.824852   440A      0.826560  
     441A      0.829466   442A      0.830741   443A      0.831997  
     444A      0.834648   445A      0.839591   446A      0.840079  
     447A      0.843043   448A      0.845337   449A      0.845580  
     450A      0.853778   451A      0.854205   452A      0.864565  
     453A      0.865861   454A      0.866706   455A      0.869577  
     456A      0.873751   457A      0.876064   458A      0.890953  
     459A      0.894857   460A      0.899197   461A      0.903617  
     462A      0.904179   463A      0.906403   464A      0.910775  
     465A      0.913262   466A      0.913291   467A      0.914201  
     468A      0.920514   469A      0.922542   470A      0.925873  
     471A      0.927378   472A      0.929583   473A      0.935764  
     474A      0.936056   475A      0.941009   476A      0.950792  
     477A      0.954298   478A      0.956107   479A      0.956974  
     480A      0.959081   481A      0.960322   482A      0.970020  
     483A      0.977624   484A      0.980036   485A      0.980979  
     486A      0.982101   487A      0.989372   488A      0.992157  
     489A      0.996012   490A      0.998971   491A      1.005066  
     492A      1.007632   493A      1.008591   494A      1.012733  
     495A      1.017034   496A      1.018815   497A      1.021700  
     498A      1.035367   499A      1.037469   500A      1.039105  
     501A      1.039808   502A      1.045338   503A      1.049547  
     504A      1.051991   505A      1.066339   506A      1.074771  
     507A      1.082126   508A      1.084359   509A      1.086101  
     510A      1.088791   511A      1.095456   512A      1.097224  
     513A      1.102536   514A      1.116614   515A      1.117641  
     516A      1.123676   517A      1.125934   518A      1.130961  
     519A      1.133379   520A      1.138384   521A      1.138704  
     522A      1.141104   523A      1.144371   524A      1.153468  
     525A      1.157260   526A      1.162295   527A      1.168537  
     528A      1.172347   529A      1.188197   530A      1.189363  
     531A      1.197084   532A      1.199776   533A      1.203688  
     534A      1.217435   535A      1.218706   536A      1.225248  
     537A      1.227237   538A      1.230698   539A      1.237501  
     540A      1.240601   541A      1.248184   542A      1.257309  
     543A      1.272283   544A      1.282167   545A      1.284263  
     546A      1.286953   547A      1.290032   548A      1.295837  
     549A      1.302329   550A      1.320998   551A      1.326562  
     552A      1.340092   553A      1.363326   554A      1.368881  
     555A      1.374065   556A      1.391107   557A      1.404147  
     558A      1.416723   559A      1.419264   560A      1.428228  
     561A      1.448297   562A      1.455458   563A      1.458915  
     564A      1.471911   565A      1.495201   566A      1.512320  
     567A      1.515554   568A      1.529323   569A      1.540586  
     570A      1.583645   571A      1.602284   572A      1.632894  
     573A      1.636527   574A      1.641212   575A      1.651954  
     576A      1.655705   577A      1.672505   578A      1.731968  
     579A      1.749581   580A      1.798597   581A      1.798880  
     582A      1.883409   583A      1.893063   584A      1.916178  
     585A      1.921898   586A      1.938127   587A      1.956441  
     588A      1.965289   589A      1.980075   590A      1.981041  
     591A      2.004829   592A      2.010948   593A      2.022905  
     594A      2.038072   595A      2.048571   596A      2.055452  
     597A      2.224172  

    Final Occupation by Irrep:
              A 
    DOCC [   203 ]

  @RKS Final Energy: -2615.49272423100501

   => Energetics <=

    Nuclear Repulsion Energy =           6211.4382698118615735
    One-Electron Energy =              -15899.4182718328593182
    Two-Electron Energy =                7367.4774162204166714
    DFT Exchange-Correlation Energy =    -294.9901384304230874
    Empirical Dispersion Energy =           0.0000000000000000
    VV10 Nonlocal Energy =                  0.0000000000000000
    Total Energy =                      -2615.4927242310050133

Computation Completed


Properties will be evaluated at   0.000000,   0.000000,   0.000000 [a0]

Properties computed using the B3LYP density matrix

  Nuclear Dipole Moment: [e a0]
     X:    -3.1046      Y:     0.3864      Z:     0.5834

  Electronic Dipole Moment: [e a0]
     X:     2.3937      Y:    -0.3563      Z:     2.0117

  Dipole Moment: [e a0]
     X:    -0.7109      Y:     0.0301      Z:     2.5951     Total:     2.6909

  Dipole Moment: [D]
     X:    -1.8069      Y:     0.0764      Z:     6.5960     Total:     6.8395


*** tstop() called on Rubens-MacBook-Pro-2.local at Thu Jan 28 21:37:21 2021
Module time:
	user time   =    5553.12 seconds =      92.55 minutes
	system time =     315.15 seconds =       5.25 minutes
	total time  =       1187 seconds =      19.78 minutes
Total time:
	user time   =   71744.74 seconds =    1195.75 minutes
	system time =    3371.53 seconds =      56.19 minutes
	total time  =      14749 seconds =     245.82 minutes

    Psi4 stopped on: Thursday, 28 January 2021 09:37PM
    Psi4 wall time for execution: 4:05:48.96

*** Psi4 exiting successfully. Buy a developer a beer!
