
    -----------------------------------------------------------------------
          Psi4: An Open-Source Ab Initio Electronic Structure Package
                               Psi4 1.3.2 release

                         Git: Rev {HEAD} ecbda83 


    R. M. Parrish, L. A. Burns, D. G. A. Smith, A. C. Simmonett,
    A. E. DePrince III, E. G. Hohenstein, U. Bozkaya, A. Yu. Sokolov,
    R. Di Remigio, R. M. Richard, J. F. Gonthier, A. M. James,
    H. R. McAlexander, A. Kumar, M. Saitow, X. Wang, B. P. Pritchard,
    P. Verma, H. F. Schaefer III, K. Patkowski, R. A. King, E. F. Valeev,
    F. A. Evangelista, J. M. Turney, T. D. Crawford, and C. D. Sherrill,
    J. Chem. Theory Comput. 13(7) pp 3185--3197 (2017).
    (doi: 10.1021/acs.jctc.7b00174)


                         Additional Contributions by
    P. Kraus, H. Kruse, M. H. Lechner, M. C. Schieber, R. A. Shaw,
    A. Alenaizan, R. Galvelis, Z. L. Glick, S. Lehtola, and J. P. Misiewicz

    -----------------------------------------------------------------------


    Psi4 started on: Wednesday, 20 January 2021 10:37AM

    Process ID: 91851
    Host:       Rubens-MacBook-Pro-2.local
    PSIDATADIR: /opt/anaconda3/envs/p4env/share/psi4
    Memory:     500.0 MiB
    Threads:    8
    
  ==> Input File <==

--------------------------------------------------------------------------
memory 8gb
molecule {
    symmetry c1 # this is important; some perturbations will break symmetry
#    no_reorient
N         0.67837695692501   -1.12553075238253   -0.75351316313868
C         0.69076487457325   -1.13302402016790    0.57633459963242
N         0.67260567310928    1.22086836115632   -0.65682280501564
C         0.64935588359467    0.13784642758504   -2.78983780738900
H         0.29471601990447   -1.86773440551920   -5.48904971795259
C         0.67692044571248    1.12004797568487    0.66890447780177
C         0.68222365779269   -2.42789482160004    1.25669809365942
H         0.91760113830125   -3.54920452637610   -0.54476403827043
C         0.67440674735975    0.07325617865018   -1.32854603334757
N         0.69244161019693   -0.03518269492719    1.32661445757312
C         0.60442680151043   -4.88703305551082    2.55472370980229
C         0.64362149236062    2.35569091540058    1.45125853259120
H        -0.68035277705181   -5.91413228739435  -17.11822418807566
C         0.47415009930391   -1.02355589086224   -3.54002953503832
C         0.47492929465219    0.40186254208986   -7.05439167097727
C         0.79576038269527    1.36251136883689   -3.43931433044230
H        -1.11152587611065   -6.68002871095919  -15.58837472261220
C         0.41254587978984   -0.95781152652674   -4.91739069111413
C         0.53605540094716    0.26854859327543   -5.56600892817356
C         0.74988164059265    1.42229462163138   -4.81616263876421
H         0.56517051767323   -6.23990853740806  -15.91183649695279
H         0.87333357940579    2.35955093088178   -5.33745965591045
C         0.71068458643471    3.48251778108562    3.57013507822051
C         0.77072688055817    2.31514529664950    2.83874889500269
H         0.38164677947796   -1.96633982212931   -3.02403951690872
C         0.45370291487781    3.57966535182779    0.81262013135526
H         0.91104736276469    1.36098021258213    3.32133744451240
H         0.33953063274946    3.59360585715002   -0.25995199098491
C         0.39854488128015    4.74634858932645    1.54773630170370
H         0.43079909318018   -3.73596164256816    4.36439790539394
C         0.43306421859068    5.93234078696430    3.78777938895172
C         0.53473929828947    4.70902075544317    2.93361538084709
H         0.79201222561624    3.47036304583502    4.64655833891127
C         0.79979888990050   -3.60883065278690    0.52559326833175
C         0.55278212081227   -2.48569503425950    2.64331896448245
H         0.48141173708015   -1.56281114962339    3.19710641322251
C         0.51029003411549   -3.70572859204108    3.28672988206528
C         0.77048411361705   -4.82601378579519    1.17344668340093
H         0.87159513360088   -5.75088518064041    0.62586641374766
C         0.56568608004828   -6.23550870963300    3.20054606650618
N        -0.29364140521660   -6.32972543958278    4.24160447145836
O         1.23139857989543   -7.17000840888847    2.80070465087931
C        -0.11882256211709   -7.32735839980108    6.48454438640327
H         0.19104457961401   -8.28664120718979    4.56598693456909
C        -0.46819922005534   -7.53833950044789    5.01145866011375
H        -1.50500960662541   -7.88359921149536    4.92208507725404
H        -0.84659891523411   -5.52940967014229    4.50306326868416
H         0.92137622862563   -7.00517711197139    6.56293437302730
H        -0.74845395681530   -6.53321156809437    6.89559986010118
C        -0.32428875875556   -8.60615606288218    7.29157388916726
H         0.31273547070356   -9.39385430920970    6.88451770065597
C        -0.00466835049999   -8.41087983066729    8.77166085491913
H        -1.36160552048056   -8.93376728325188    7.18807520058424
H         1.03611701496053   -8.09742909826299    8.87919557202680
H        -0.63304180465419   -7.61347798971352    9.17597944375297
C        -0.23408949719953   -9.68861032417246    9.57526818038335
H         0.39518097809215  -10.48554812052960    9.17237243498884
C         0.07685601433899   -9.50078494940863   11.05791335600594
H        -1.27471383705374  -10.00253319374328    9.46266563003929
H         1.12086534749753   -9.20000387517037   11.17301405017979
H        -0.54421583690581   -8.69569952380567   11.45818215269649
C        -0.17197389585863  -10.77443803582289   11.86226247477526
H         0.44911724786568  -11.57961450456197   11.46318798849251
C         0.13807441472171  -10.58132941539649   13.34148036548263
H        -1.21598888789697  -11.07493655369437   11.74670893959790
H         1.18060977594866  -10.30279585523278   13.47936019051316
H        -0.48400898650558   -9.79396900144758   13.76186229613738
H        -0.04828443081499  -11.49842928672689   13.89545956296594
O        -0.03528418874779    5.89875483837410    4.90910334436289
N         0.92094136599648    7.06256760750474    3.22611424834560
H         1.30539140972907    7.03001580616161    2.29607605777420
C         0.80180406185716    8.35747010194355    3.85378072998651
H         1.77871700737541    8.85160358288866    3.85722864936317
C        -0.23075945113550    9.23403971281323    3.14252094647761
H         0.49127735395052    8.17486686389101    4.88493635645147
H         0.07732826978733    9.39071841260244    2.10507129194798
H        -1.18778664336024    8.70820362072938    3.13247410259274
C        -0.39879378614049   10.58393410764433    3.83361628503207
H         0.55692617135305   11.11334894178203    3.83415975140428
C        -1.45626835777743   11.44473006406290    3.14657850828128
H        -0.68710761464080   10.42000106322476    4.87382974603021
H        -1.17014403251055   11.60845664701409    2.10473258293028
H        -2.40891813812136   10.91009376146078    3.14662822896108
C        -1.63794699202458   12.79412102405088    3.83709299359522
H        -0.69331406866977   13.34277450807736    3.81457961080633
C        -2.72667685514620   13.63269421761466    3.17219226539464
H        -1.89866379099149   12.63017639247007    4.88523873493645
H        -2.47245598824877   13.78716137553069    2.12071370389069
H        -3.67214540627658   13.08601356839778    3.20555491727298
C        -2.90698988670151   14.98865093514615    3.85006855860372
H        -1.96640426440130   15.54249837203784    3.80506176549341
C        -4.00973988668701   15.80808573695787    3.19107930064411
H        -3.14959460161542   14.83513401158219    4.90406536125711
H        -3.77943258049172   15.98391068970462    2.14241246568181
H        -4.96059038470799   15.28248906766273    3.24798684863659
H        -4.11990756576968   16.77095665159586    3.68443163164238
N        -0.43008261216824   -0.40902306137095   -7.64992994176059
C        -0.64855775936616   -0.42773383301277   -9.07684269614584
O         1.16129903974134    1.19562994667880   -7.66689627988361
H        -0.99904154989536   -1.01831710873157   -7.08454852520853
H         0.03309207912359    0.31174263795079   -9.50301339822568
C        -0.38083843909483   -1.80798454799291   -9.67618232368173
H        -1.67937618477457   -0.12333528922325   -9.29390107561915
H         0.65370123967883   -2.09177121383081   -9.47360338223474
H        -1.03155940764037   -2.54407094637150   -9.19585508493260
C        -0.63164002222688   -1.81431878915614  -11.18155629299631
H         0.02500402087749   -1.08346184485191  -11.65764681519531
C        -0.39135845580855   -3.18900725255412  -11.80061713688575
H        -1.66241806866690   -1.50783552662425  -11.37560909926182
H         0.64194057431829   -3.49251912151700  -11.61837973141905
H        -1.04113402434749   -3.92287031366755  -11.31750801251826
C        -0.66124552164814   -3.18968054166799  -13.30336707825633
H        -0.01292525003272   -2.45474771839464  -13.78605166996257
C        -0.42395920756203   -4.56091149801981  -13.93072071255968
H        -1.69505585612899   -2.88499481871300  -13.48371780048168
H         0.61261283569718   -4.86139908000590  -13.76070817884877
H        -1.06536115093580   -5.29805538603840  -13.44150773684126
C        -0.70920543854523   -4.56330178220888  -15.43061810604118
H        -0.06899228491327   -3.82588951198541  -15.92018445653556
C        -0.46938025835568   -5.93386416546403  -16.05155478852815
H        -1.74623764023627   -4.26442560929843  -15.60047481320847
H         0.94879726042656    2.25074152805466   -2.84711164773113
H         0.21443512272856    5.68217353839362    1.03881394885592

}

pert = 0.001
lambdas = [pert, -pert, 2.0*pert, -2.0*pert]

set {
    basis     6-31g
    d_convergence   8
    reference rhf
    scf_type direct
}
method = 'B3LYP'

perturbed_energies = np.zeros((len(lambdas),3))
x_perturbed_dipoles = np.zeros((len(lambdas),3))
y_perturbed_dipoles = np.zeros((len(lambdas),3))
z_perturbed_dipoles = np.zeros((len(lambdas),3))

# start with a reference dipole calculation
properties(method, properties=['dipole'])
mu_x = psi4.core.variable(method + ' DIPOLE X') / psi_dipmom_au2debye
mu_y = psi4.core.variable(method + ' DIPOLE Y') / psi_dipmom_au2debye
mu_z = psi4.core.variable(method + ' DIPOLE Z') / psi_dipmom_au2debye
analytic_dipole = np.array([mu_x, mu_y, mu_z])

# now compute with different applied fields
for step, l in enumerate(lambdas):
    set perturb_h true
    set perturb_with dipole
    # x pertubation
    set perturb_dipole [$l, 0, 0]
    perturbed_energies[step,0] = properties(method, properties=['dipole'])
    x_perturbed_dipoles[step,0] = psi4.core.variable(method + ' DIPOLE X')
    x_perturbed_dipoles[step,1] = psi4.core.variable(method + ' DIPOLE Y')
    x_perturbed_dipoles[step,2] = psi4.core.variable(method + ' DIPOLE Z')
    # y pertubation
    set perturb_dipole [0, $l, 0]
    perturbed_energies[step,1] = properties(method, properties=['dipole'])
    y_perturbed_dipoles[step,0] = psi4.core.variable(method + ' DIPOLE X')
    y_perturbed_dipoles[step,1] = psi4.core.variable(method + ' DIPOLE Y')
    y_perturbed_dipoles[step,2] = psi4.core.variable(method + ' DIPOLE Z')
    # z pertubation
    set perturb_dipole [0, 0, $l]
    perturbed_energies[step,2] = properties(method, properties=['dipole'])
    z_perturbed_dipoles[step,0] = psi4.core.variable(method + ' DIPOLE X')
    z_perturbed_dipoles[step,1] = psi4.core.variable(method + ' DIPOLE Y')
    z_perturbed_dipoles[step,2] = psi4.core.variable(method + ' DIPOLE Z')

# use 3- and 5-point finite difference formulae to compute the dipole
mu_3pt = (perturbed_energies[0] - perturbed_energies[1]) / (2.0*pert)
mu_5pt = (8.0*perturbed_energies[0] - 8.0*perturbed_energies[1] - perturbed_energies[2] + perturbed_energies[3]) / (12.0*pert)
# and the polarizability
a_x_3pt = (x_perturbed_dipoles[0] - x_perturbed_dipoles[1]) / (2.0*pert)
a_y_3pt = (y_perturbed_dipoles[0] - y_perturbed_dipoles[1]) / (2.0*pert)
a_z_3pt = (z_perturbed_dipoles[0] - z_perturbed_dipoles[1]) / (2.0*pert)
alpha_3pt = np.vstack((a_x_3pt, a_y_3pt, a_z_3pt))
a_x_5pt = (8.0*x_perturbed_dipoles[0] - 8.0*x_perturbed_dipoles[1] - x_perturbed_dipoles[2] + x_perturbed_dipoles[3]) / (12.0*pert)
a_y_5pt = (8.0*y_perturbed_dipoles[0] - 8.0*y_perturbed_dipoles[1] - y_perturbed_dipoles[2] + y_perturbed_dipoles[3]) / (12.0*pert)
a_z_5pt = (8.0*z_perturbed_dipoles[0] - 8.0*z_perturbed_dipoles[1] - z_perturbed_dipoles[2] + z_perturbed_dipoles[3]) / (12.0*pert)
alpha_5pt = np.vstack((a_x_5pt, a_y_5pt, a_z_5pt))

# let's see what happened!
np.set_printoptions(suppress=True)
print('Analytic dipole\n', analytic_dipole)
print('3point finite difference dipole\n', mu_3pt)
print('5point finite difference dipole\n', mu_5pt)

print('3point finite difference polarizability\n', alpha_3pt)
print('5point finite difference polarizability\n', alpha_5pt)
--------------------------------------------------------------------------

  Memory set to   7.451 GiB by Python driver.

*** tstart() called on Rubens-MacBook-Pro-2.local
*** at Wed Jan 20 10:37:09 2021

   => Loading Basis Set <=

    Name: 6-31G
    Role: ORBITAL
    Keyword: BASIS
    atoms 1, 3, 10, 41, 70, 97                                                                                                                                                                                   entry N          line   102 file /opt/anaconda3/envs/p4env/share/psi4/basis/6-31g.gbs 
    atoms 2, 4, 6-7, 9, 11-12, 14-16, 18-20, 23-24, 26, 29, 31-32, 34-35, 37-38, 40, 43, 45, 50, 52, 56, 58, 62, 64, 72, 74, 78, 80, 84, 86, 90, 92, 98, 102, 106, 108, 112, 114, 118, 120                       entry C          line    87 file /opt/anaconda3/envs/p4env/share/psi4/basis/6-31g.gbs 
    atoms 5, 8, 13, 17, 21-22, 25, 27-28, 30, 33, 36, 39, 44, 46-49, 51, 53-55, 57, 59-61, 63, 65-68, 71, 73, 75-77, 79, 81-83, 85, 87-89, 91, 93-96, 100-101, 103-105, 107, 109-111, 113, 115-117, 119, 121-123 entry H          line    26 file /opt/anaconda3/envs/p4env/share/psi4/basis/6-31g.gbs 
    atoms 42, 69, 99                                                                                                                                                                                             entry O          line   117 file /opt/anaconda3/envs/p4env/share/psi4/basis/6-31g.gbs 


         ---------------------------------------------------------
                                   SCF
               by Justin Turney, Rob Parrish, Andy Simmonett
                          and Daniel G. A. Smith
                              RKS Reference
                        8 Threads,   7629 MiB Core
         ---------------------------------------------------------

  ==> Geometry <==

    Molecular point group: c1
    Full point group: C1

    Geometry (in Angstrom), charge = 0, multiplicity = 1:

       Center              X                  Y                   Z               Mass       
    ------------   -----------------  -----------------  -----------------  -----------------
         N            0.686222871631    -1.121190355680    -0.757322264276    14.003074004430
         C            0.698610789280    -1.128683623466     0.572525498495    12.000000000000
         N            0.680451587816     1.225208757858    -0.660631906153    14.003074004430
         C            0.657201798301     0.142186824287    -2.793646908527    12.000000000000
         H            0.302561934611    -1.863394008817    -5.492858819090     1.007825032230
         C            0.684766360419     1.124388372387     0.665095376664    12.000000000000
         C            0.690069572499    -2.423554424898     1.252888992522    12.000000000000
         H            0.925447053008    -3.544864129674    -0.548573139408     1.007825032230
         C            0.682252662066     0.077596575352    -1.332355134485    12.000000000000
         N            0.700287524903    -0.030842298225     1.322805356436    14.003074004430
         C            0.612272716217    -4.882692658809     2.550914608665    12.000000000000
         C            0.651467407067     2.360031312103     1.447449431454    12.000000000000
         H           -0.672506862345    -5.909791890692   -17.122033289213     1.007825032230
         C            0.481996014010    -1.019215494160    -3.543838636176    12.000000000000
         C            0.482775209359     0.406202938792    -7.058200772115    12.000000000000
         C            0.803606297402     1.366851765539    -3.443123431580    12.000000000000
         H           -1.103679961404    -6.675688314257   -15.592183823750     1.007825032230
         C            0.420391794496    -0.953471129825    -4.921199792252    12.000000000000
         C            0.543901315653     0.272888989978    -5.569818029311    12.000000000000
         C            0.757727555299     1.426635018333    -4.819971739902    12.000000000000
         H            0.573016432380    -6.235568140706   -15.915645598090     1.007825032230
         H            0.881179494112     2.363891327584    -5.341268757048     1.007825032230
         C            0.718530501141     3.486858177788     3.566325977083    12.000000000000
         C            0.778572795264     2.319485693352     2.834939793865    12.000000000000
         H            0.389492694184    -1.961999425427    -3.027848618046     1.007825032230
         C            0.461548829584     3.584005748530     0.808811030218    12.000000000000
         H            0.918893277471     1.365320609284     3.317528343375     1.007825032230
         H            0.347376547456     3.597946253852    -0.263761092122     1.007825032230
         C            0.406390795986     4.750688986029     1.543927200566    12.000000000000
         H            0.438645007886    -3.731621245866     4.360588804256     1.007825032230
         C            0.440910133297     5.936681183666     3.783970287814    12.000000000000
         C            0.542585212996     4.713361152145     2.929806279710    12.000000000000
         H            0.799858140323     3.474703442537     4.642749237774     1.007825032230
         C            0.807644804607    -3.604490256085     0.521784167194    12.000000000000
         C            0.560628035519    -2.481354637557     2.639509863345    12.000000000000
         H            0.489257651786    -1.558470752921     3.193297312085     1.007825032230
         C            0.518135948822    -3.701388195339     3.282920780928    12.000000000000
         C            0.778330028323    -4.821673389093     1.169637582263    12.000000000000
         H            0.879441048307    -5.746544783938     0.622057312610     1.007825032230
         C            0.573531994755    -6.231168312931     3.196736965369    12.000000000000
         N           -0.285795490510    -6.325385042881     4.237795370321    14.003074004430
         O            1.239244494602    -7.165668012186     2.796895549742    15.994914619570
         C           -0.110976647411    -7.323018003099     6.480735285266    12.000000000000
         H            0.198890494320    -8.282300810488     4.562177833432     1.007825032230
         C           -0.460353305349    -7.533999103746     5.007649558976    12.000000000000
         H           -1.497163691919    -7.879258814793     4.918275976117     1.007825032230
         H           -0.838753000528    -5.525069273440     4.499254167547     1.007825032230
         H            0.929222143332    -7.000836715269     6.559125271890     1.007825032230
         H           -0.740608042109    -6.528871171392     6.891790758964     1.007825032230
         C           -0.316442844049    -8.601815666180     7.287764788030    12.000000000000
         H            0.320581385410    -9.389513912508     6.880708599518     1.007825032230
         C            0.003177564206    -8.406539433965     8.767851753782    12.000000000000
         H           -1.353759605774    -8.929426886550     7.184266099447     1.007825032230
         H            1.043962929667    -8.093088701561     8.875386470889     1.007825032230
         H           -0.625195889948    -7.609137593011     9.172170342615     1.007825032230
         C           -0.226243582493    -9.684269927470     9.571459079246    12.000000000000
         H            0.403026892798   -10.481207723828     9.168563333851     1.007825032230
         C            0.084701929045    -9.496444552707    11.054104254868    12.000000000000
         H           -1.266867922347    -9.998192797041     9.458856528902     1.007825032230
         H            1.128711262204    -9.195663478468    11.169204949042     1.007825032230
         H           -0.536369922199    -8.691359127104    11.454373051559     1.007825032230
         C           -0.164127981152   -10.770097639121    11.858453373638    12.000000000000
         H            0.456963162572   -11.575274107860    11.459378887355     1.007825032230
         C            0.145920329428   -10.576989018694    13.337671264345    12.000000000000
         H           -1.208142973191   -11.070596156992    11.742899838460     1.007825032230
         H            1.188455690655   -10.298455458531    13.475551089376     1.007825032230
         H           -0.476163071799    -9.789628604745    13.758053195000     1.007825032230
         H           -0.040438516109   -11.494088890025    13.891650461828     1.007825032230
         O           -0.027438274041     5.903095235076     4.905294243225    15.994914619570
         N            0.928787280703     7.066908004207     3.222305147208    14.003074004430
         H            1.313237324435     7.034356202864     2.292266956637     1.007825032230
         C            0.809649976563     8.361810498646     3.849971628849    12.000000000000
         H            1.786562922082     8.855943979591     3.853419548226     1.007825032230
         C           -0.222913536429     9.238380109515     3.138711845340    12.000000000000
         H            0.499123268657     8.179207260593     4.881127255314     1.007825032230
         H            0.085174184494     9.395058809305     2.101262190810     1.007825032230
         H           -1.179940728654     8.712544017431     3.128665001455     1.007825032230
         C           -0.390947871434    10.588274504346     3.829807183895    12.000000000000
         H            0.564772086059    11.117689338484     3.830350650267     1.007825032230
         C           -1.448422443071    11.449070460765     3.142769407144    12.000000000000
         H           -0.679261699934    10.424341459927     4.870020644893     1.007825032230
         H           -1.162298117804    11.612797043716     2.100923481793     1.007825032230
         H           -2.401072223415    10.914434158163     3.142819127824     1.007825032230
         C           -1.630101077318    12.798461420753     3.833283892458    12.000000000000
         H           -0.685468153963    13.347114904779     3.810770509669     1.007825032230
         C           -2.718830940440    13.637034614317     3.168383164257    12.000000000000
         H           -1.890817876285    12.634516789172     4.881429633799     1.007825032230
         H           -2.464610073542    13.791501772233     2.116904602753     1.007825032230
         H           -3.664299491570    13.090353965100     3.201745816135     1.007825032230
         C           -2.899143971995    14.992991331848     3.846259457466    12.000000000000
         H           -1.958558349695    15.546838768740     3.801252664356     1.007825032230
         C           -4.001893971981    15.812426133660     3.187270199507    12.000000000000
         H           -3.141748686909    14.839474408284     4.900256260120     1.007825032230
         H           -3.771586665785    15.988251086407     2.138603364544     1.007825032230
         H           -4.952744470002    15.286829464365     3.244177747499     1.007825032230
         H           -4.112061651063    16.775297048298     3.680622530505     1.007825032230
         N           -0.422236697462    -0.404682664669    -7.653739042898    14.003074004430
         C           -0.640711844660    -0.423393436311    -9.080651797283    12.000000000000
         O            1.169144954448     1.199970343381    -7.670705381021    15.994914619570
         H           -0.991195635189    -1.013976712029    -7.088357626346     1.007825032230
         H            0.040937993830     0.316083034653    -9.506822499363     1.007825032230
         C           -0.372992524389    -1.803644151291    -9.679991424819    12.000000000000
         H           -1.671530270068    -0.118994892521    -9.297710176757     1.007825032230
         H            0.661547154385    -2.087430817129    -9.477412483372     1.007825032230
         H           -1.023713492934    -2.539730549669    -9.199664186070     1.007825032230
         C           -0.623794107521    -1.809978392454   -11.185365394134    12.000000000000
         H            0.032849935584    -1.079121448150   -11.661455916333     1.007825032230
         C           -0.383512541102    -3.184666855852   -11.804426238023    12.000000000000
         H           -1.654572153961    -1.503495129922   -11.379418200399     1.007825032230
         H            0.649786489025    -3.488178724815   -11.622188832557     1.007825032230
         H           -1.033288109641    -3.918529916965   -11.321317113656     1.007825032230
         C           -0.653399606942    -3.185340144966   -13.307176179394    12.000000000000
         H           -0.005079335326    -2.450407321693   -13.789860771100     1.007825032230
         C           -0.416113292856    -4.556571101318   -13.934529813697    12.000000000000
         H           -1.687209941423    -2.880654422011   -13.487526901619     1.007825032230
         H            0.620458750403    -4.857058683304   -13.764517279986     1.007825032230
         H           -1.057515236229    -5.293714989336   -13.445316837979     1.007825032230
         C           -0.701359523839    -4.558961385507   -15.434427207179    12.000000000000
         H           -0.061146370207    -3.821549115283   -15.923993557673     1.007825032230
         C           -0.461534343649    -5.929523768762   -16.055363889666    12.000000000000
         H           -1.738391725530    -4.260085212596   -15.604283914346     1.007825032230
         H            0.956643175133     2.255081924757    -2.850920748869     1.007825032230
         H            0.222281037435     5.686513935096     1.035004847718     1.007825032230

  Running in c1 symmetry.

  Rotational constants: A =      0.00048  B =      0.00045  C =      0.00024 [cm^-1]
  Rotational constants: A =     14.37352  B =     13.63930  C =      7.13042 [MHz]
  Nuclear repulsion = 6343.064543233753284

  Charge       = 0
  Multiplicity = 1
  Electrons    = 420
  Nalpha       = 210
  Nbeta        = 210

  ==> Algorithm <==

  SCF Algorithm Type is DIRECT.
  DIIS enabled.
  MOM disabled.
  Fractional occupation disabled.
  Guess Type is SAD.
  Energy threshold   = 1.00e-06
  Density threshold  = 1.00e-08
  Integral threshold = 0.00e+00

  ==> Primary Basis <==

  Basis Set: 6-31G
    Blend: 6-31G
    Number of shells: 417
    Number of basis function: 645
    Number of Cartesian functions: 645
    Spherical Harmonics?: false
    Max angular momentum: 1

  ==> DFT Potential <==

   => Composite Functional: B3LYP <= 

    B3LYP Hyb-GGA Exchange-Correlation Functional

    P. J. Stephens, F. J. Devlin, C. F. Chabalowski, and M. J. Frisch, J. Phys. Chem. 98, 11623 (1994)

    Deriv               =              1
    GGA                 =           TRUE
    Meta                =          FALSE

    Exchange Hybrid     =           TRUE
    MP2 Hybrid          =          FALSE

   => Exchange Functionals <=

    0.0800   Slater exchange
    0.7200         Becke 88

   => Exact (HF) Exchange <=

    0.2000               HF 

   => Correlation Functionals <=

    0.1900   Vosko, Wilk & Nusair (VWN5_RPA)
    0.8100   Lee, Yang & Parr

   => Molecular Quadrature <=

    Radial Scheme          =       TREUTLER
    Pruning Scheme         =           FLAT
    Nuclear Scheme         =       TREUTLER

    BS radius alpha        =              1
    Pruning alpha          =              1
    Radial Points          =             75
    Spherical Points       =            302
    Total Points           =        2738403
    Total Blocks           =          19828
    Max Points             =            256
    Max Functions          =            221

   => Loading Basis Set <=

    Name: (6-31G AUX)
    Role: JKFIT
    Keyword: DF_BASIS_SCF
    atoms 1, 3, 10, 41, 70, 97                                                                                                                                                                                   entry N          line   171 file /opt/anaconda3/envs/p4env/share/psi4/basis/cc-pvdz-jkfit.gbs 
    atoms 2, 4, 6-7, 9, 11-12, 14-16, 18-20, 23-24, 26, 29, 31-32, 34-35, 37-38, 40, 43, 45, 50, 52, 56, 58, 62, 64, 72, 74, 78, 80, 84, 86, 90, 92, 98, 102, 106, 108, 112, 114, 118, 120                       entry C          line   121 file /opt/anaconda3/envs/p4env/share/psi4/basis/cc-pvdz-jkfit.gbs 
    atoms 5, 8, 13, 17, 21-22, 25, 27-28, 30, 33, 36, 39, 44, 46-49, 51, 53-55, 57, 59-61, 63, 65-68, 71, 73, 75-77, 79, 81-83, 85, 87-89, 91, 93-96, 100-101, 103-105, 107, 109-111, 113, 115-117, 119, 121-123 entry H          line    51 file /opt/anaconda3/envs/p4env/share/psi4/basis/cc-pvdz-jkfit.gbs 
    atoms 42, 69, 99                                                                                                                                                                                             entry O          line   221 file /opt/anaconda3/envs/p4env/share/psi4/basis/cc-pvdz-jkfit.gbs 

  Starting with a DF guess...

  ==> Pre-Iterations <==

   -------------------------------------------------------
    Irrep   Nso     Nmo     Nalpha   Nbeta   Ndocc  Nsocc
   -------------------------------------------------------
     A        645     645       0       0       0       0
   -------------------------------------------------------
    Total     645     645     210     210     210       0
   -------------------------------------------------------

  ==> Integral Setup <==

  ==> DiskDFJK: Density-Fitted J/K Matrices <==

    J tasked:                  Yes
    K tasked:                  Yes
    wK tasked:                  No
    OpenMP threads:              8
    Integrals threads:           8
    Memory [MiB]:             3639
    Algorithm:                Disk
    Integral Cache:           NONE
    Schwarz Cutoff:          1E-12
    Fitting Condition:       1E-10

   => Auxiliary Basis Set <=

  Basis Set: (6-31G AUX)
    Blend: CC-PVDZ-JKFIT
    Number of shells: 1962
    Number of basis function: 6267
    Number of Cartesian functions: 6267
    Spherical Harmonics?: false
    Max angular momentum: 3

  Cached 25.0% of DFT collocation blocks in 2.157 [GiB].

  Minimum eigenvalue in the overlap matrix is 4.7402885756E-04.
  Using Symmetric Orthogonalization.

  SCF Guess: Superposition of Atomic Densities via on-the-fly atomic UHF.

  ==> Iterations <==

                           Total Energy        Delta E     RMS |[F,P]|

   @DF-RKS iter SAD: -2420.28182970536136   -2.42028e+03   0.00000e+00 
   @DF-RKS iter   1: -2419.30889543339254    9.72934e-01   3.81553e-03 DIIS
   @DF-RKS iter   2: -2418.18587564934933    1.12302e+00   4.54515e-03 DIIS
   @DF-RKS iter   3: -2422.31997508974018   -4.13410e+00   1.05307e-03 DIIS
   @DF-RKS iter   4: -2422.50065768993227   -1.80683e-01   3.11454e-04 DIIS
   @DF-RKS iter   5: -2422.51605757769221   -1.53999e-02   9.80924e-05 DIIS
   @DF-RKS iter   6: -2422.51796323393683   -1.90566e-03   2.75628e-05 DIIS
   @DF-RKS iter   7: -2422.51811281945538   -1.49586e-04   5.73685e-06 DIIS
   @DF-RKS iter   8: -2422.51811835757189   -5.53812e-06   2.64413e-06 DIIS
   @DF-RKS iter   9: -2422.51811983020798   -1.47264e-06   5.63701e-07 DIIS
   @DF-RKS iter  10: -2422.51811988369127   -5.34833e-08   3.13602e-07 DIIS
   @DF-RKS iter  11: -2422.51811990526949   -2.15782e-08   6.36191e-08 DIIS
   @DF-RKS iter  12: -2422.51811990594342   -6.73936e-10   3.26398e-08 DIIS
   @DF-RKS iter  13: -2422.51811990613669   -1.93268e-10   1.32213e-08 DIIS
   @DF-RKS iter  14: -2422.51811990617807   -4.13820e-11   2.46042e-09 DIIS

  DF guess converged.

  ==> DirectJK: Integral-Direct J/K Matrices <==

    J tasked:                  Yes
    K tasked:                  Yes
    wK tasked:                  No
    Integrals threads:           8
    Schwarz Cutoff:          1E-12

   @RKS iter  15: -2422.51823721651135   -2.42252e+03   4.15315e-07 DIIS
   @RKS iter  16: -2422.51823727604278   -5.95314e-08   1.11003e-07 DIIS
   @RKS iter  17: -2422.51823727577494    2.67846e-10   1.24825e-07 DIIS
   @RKS iter  18: -2422.51823727868168   -2.90675e-09   3.85968e-08 DIIS
   @RKS iter  19: -2422.51823727892679   -2.45109e-10   1.05776e-08 DIIS
   @RKS iter  20: -2422.51823727894316   -1.63709e-11   2.87027e-09 DIIS
  Energy and wave function converged.


  ==> Post-Iterations <==

    Orbital Energies [Eh]
    ---------------------

    Doubly Occupied:                                                      

       1A    -19.111280     2A    -19.111266     3A    -19.110885  
       4A    -14.356772     5A    -14.356610     6A    -14.356326  
       7A    -14.353453     8A    -14.353287     9A    -14.353222  
      10A    -10.290621    11A    -10.290615    12A    -10.290232  
      13A    -10.287606    14A    -10.287579    15A    -10.287544  
      16A    -10.214058    17A    -10.213947    18A    -10.213776  
      19A    -10.207857    20A    -10.207841    21A    -10.207550  
      22A    -10.206800    23A    -10.206732    24A    -10.206459  
      25A    -10.202682    26A    -10.202116    27A    -10.201710  
      28A    -10.198360    29A    -10.198219    30A    -10.197814  
      31A    -10.195988    32A    -10.195844    33A    -10.195828  
      34A    -10.194610    35A    -10.194351    36A    -10.194104  
      37A    -10.180687    38A    -10.180465    39A    -10.179456  
      40A    -10.176242    41A    -10.175982    42A    -10.175403  
      43A    -10.172650    44A    -10.172396    45A    -10.172020  
      46A    -10.169951    47A    -10.169853    48A    -10.169725  
      49A    -10.169641    50A    -10.169599    51A    -10.169331  
      52A    -10.168524    53A    -10.168282    54A    -10.168157  
      55A    -10.161868    56A    -10.161683    57A    -10.161651  
      58A     -1.069651    59A     -1.060573    60A     -1.060553  
      61A     -1.060111    62A     -0.943526    63A     -0.943496  
      64A     -0.936923    65A     -0.936894    66A     -0.936624  
      67A     -0.881076    68A     -0.879947    69A     -0.879719  
      70A     -0.820006    71A     -0.819735    72A     -0.819250  
      73A     -0.801448    74A     -0.801242    75A     -0.798300  
      76A     -0.790742    77A     -0.790525    78A     -0.784762  
      79A     -0.767575    80A     -0.767140    81A     -0.766962  
      82A     -0.756233    83A     -0.755865    84A     -0.754339  
      85A     -0.719927    86A     -0.719816    87A     -0.711127  
      88A     -0.698729    89A     -0.698590    90A     -0.669991  
      91A     -0.658066    92A     -0.657955    93A     -0.644477  
      94A     -0.635596    95A     -0.627680    96A     -0.627355  
      97A     -0.613764    98A     -0.613462    99A     -0.604885  
     100A     -0.603045   101A     -0.602056   102A     -0.598012  
     103A     -0.592205   104A     -0.591938   105A     -0.582958  
     106A     -0.582745   107A     -0.582614   108A     -0.577287  
     109A     -0.577081   110A     -0.577017   111A     -0.570788  
     112A     -0.562613   113A     -0.552607   114A     -0.551986  
     115A     -0.536488   116A     -0.500736   117A     -0.500522  
     118A     -0.493624   119A     -0.492279   120A     -0.491840  
     121A     -0.485901   122A     -0.480701   123A     -0.480487  
     124A     -0.479421   125A     -0.473068   126A     -0.472470  
     127A     -0.471532   128A     -0.466867   129A     -0.466519  
     130A     -0.465066   131A     -0.458803   132A     -0.451486  
     133A     -0.451260   134A     -0.444186   135A     -0.443853  
     136A     -0.442965   137A     -0.438772   138A     -0.438527  
     139A     -0.437244   140A     -0.434843   141A     -0.432795  
     142A     -0.432416   143A     -0.428568   144A     -0.427758  
     145A     -0.427408   146A     -0.418546   147A     -0.414792  
     148A     -0.413683   149A     -0.413455   150A     -0.411160  
     151A     -0.410914   152A     -0.401530   153A     -0.400941  
     154A     -0.395698   155A     -0.394177   156A     -0.393159  
     157A     -0.392075   158A     -0.390500   159A     -0.388681  
     160A     -0.383171   161A     -0.378163   162A     -0.376054  
     163A     -0.373920   164A     -0.370167   165A     -0.369246  
     166A     -0.369093   167A     -0.366168   168A     -0.364402  
     169A     -0.364167   170A     -0.363884   171A     -0.360525  
     172A     -0.360252   173A     -0.358402   174A     -0.356632  
     175A     -0.355916   176A     -0.352504   177A     -0.343541  
     178A     -0.343127   179A     -0.340768   180A     -0.340473  
     181A     -0.340177   182A     -0.338884   183A     -0.338642  
     184A     -0.338231   185A     -0.329208   186A     -0.328966  
     187A     -0.328550   188A     -0.325981   189A     -0.325741  
     190A     -0.325536   191A     -0.323408   192A     -0.323172  
     193A     -0.323022   194A     -0.304292   195A     -0.304006  
     196A     -0.303798   197A     -0.271425   198A     -0.270965  
     199A     -0.268858   200A     -0.268732   201A     -0.268306  
     202A     -0.266637   203A     -0.263021   204A     -0.262652  
     205A     -0.250327   206A     -0.249952   207A     -0.249599  
     208A     -0.248663   209A     -0.247846   210A     -0.247473  

    Virtual:                                                              

     211A     -0.083214   212A     -0.082867   213A     -0.040112  
     214A     -0.011313   215A     -0.010942   216A     -0.009907  
     217A      0.004770   218A      0.005654   219A      0.046355  
     220A      0.068723   221A      0.069786   222A      0.073691  
     223A      0.074937   224A      0.075716   225A      0.085214  
     226A      0.085553   227A      0.085689   228A      0.094706  
     229A      0.096931   230A      0.097134   231A      0.099086  
     232A      0.107631   233A      0.108269   234A      0.111171  
     235A      0.113504   236A      0.114619   237A      0.117009  
     238A      0.118407   239A      0.119300   240A      0.120504  
     241A      0.121759   242A      0.121959   243A      0.122309  
     244A      0.133639   245A      0.134236   246A      0.137173  
     247A      0.143819   248A      0.144578   249A      0.145983  
     250A      0.147016   251A      0.147586   252A      0.153529  
     253A      0.154557   254A      0.155108   255A      0.159631  
     256A      0.162856   257A      0.166551   258A      0.168674  
     259A      0.170666   260A      0.171035   261A      0.173853  
     262A      0.174685   263A      0.176006   264A      0.177600  
     265A      0.179245   266A      0.179724   267A      0.187070  
     268A      0.188511   269A      0.188961   270A      0.189245  
     271A      0.193588   272A      0.194138   273A      0.194774  
     274A      0.194913   275A      0.195006   276A      0.195943  
     277A      0.198762   278A      0.198983   279A      0.199171  
     280A      0.199410   281A      0.199585   282A      0.199924  
     283A      0.210556   284A      0.211505   285A      0.211871  
     286A      0.214270   287A      0.214505   288A      0.214687  
     289A      0.216962   290A      0.217362   291A      0.218168  
     292A      0.221554   293A      0.221739   294A      0.222416  
     295A      0.224011   296A      0.224269   297A      0.224907  
     298A      0.229685   299A      0.230247   300A      0.241239  
     301A      0.241330   302A      0.245342   303A      0.249090  
     304A      0.249514   305A      0.250150   306A      0.253030  
     307A      0.253206   308A      0.253661   309A      0.256434  
     310A      0.259375   311A      0.259690   312A      0.260138  
     313A      0.272934   314A      0.273077   315A      0.273540  
     316A      0.287987   317A      0.291752   318A      0.292753  
     319A      0.296644   320A      0.297533   321A      0.309328  
     322A      0.310315   323A      0.310551   324A      0.313303  
     325A      0.316132   326A      0.324142   327A      0.324676  
     328A      0.328483   329A      0.333346   330A      0.333978  
     331A      0.342082   332A      0.349670   333A      0.350304  
     334A      0.351459   335A      0.373138   336A      0.373407  
     337A      0.388664   338A      0.390213   339A      0.399373  
     340A      0.418577   341A      0.424477   342A      0.424956  
     343A      0.454957   344A      0.455911   345A      0.473245  
     346A      0.484872   347A      0.491145   348A      0.491520  
     349A      0.492335   350A      0.501816   351A      0.505796  
     352A      0.509441   353A      0.516356   354A      0.523490  
     355A      0.526694   356A      0.531398   357A      0.532057  
     358A      0.536542   359A      0.545440   360A      0.545921  
     361A      0.546496   362A      0.547101   363A      0.550469  
     364A      0.551288   365A      0.553080   366A      0.555997  
     367A      0.557211   368A      0.561976   369A      0.562654  
     370A      0.574431   371A      0.575033   372A      0.575490  
     373A      0.575753   374A      0.575811   375A      0.576911  
     376A      0.578089   377A      0.582061   378A      0.582958  
     379A      0.583730   380A      0.590655   381A      0.592540  
     382A      0.594050   383A      0.594389   384A      0.595008  
     385A      0.596694   386A      0.597954   387A      0.599265  
     388A      0.601451   389A      0.602084   390A      0.603332  
     391A      0.605425   392A      0.605960   393A      0.608746  
     394A      0.609560   395A      0.610607   396A      0.611687  
     397A      0.618112   398A      0.618537   399A      0.619900  
     400A      0.621032   401A      0.624677   402A      0.625436  
     403A      0.628002   404A      0.629641   405A      0.631699  
     406A      0.634419   407A      0.637480   408A      0.644945  
     409A      0.646380   410A      0.647716   411A      0.649330  
     412A      0.654665   413A      0.655574   414A      0.658169  
     415A      0.661189   416A      0.661726   417A      0.662108  
     418A      0.671364   419A      0.673386   420A      0.674818  
     421A      0.678361   422A      0.679827   423A      0.679890  
     424A      0.681880   425A      0.683473   426A      0.684219  
     427A      0.684589   428A      0.685217   429A      0.686058  
     430A      0.688956   431A      0.692191   432A      0.718144  
     433A      0.718676   434A      0.719767   435A      0.720606  
     436A      0.721502   437A      0.726789   438A      0.736497  
     439A      0.736896   440A      0.737833   441A      0.737970  
     442A      0.738615   443A      0.741060   444A      0.742146  
     445A      0.745295   446A      0.748173   447A      0.757464  
     448A      0.758928   449A      0.759702   450A      0.765079  
     451A      0.766208   452A      0.781677   453A      0.786719  
     454A      0.787330   455A      0.793818   456A      0.798434  
     457A      0.799588   458A      0.802228   459A      0.805365  
     460A      0.807863   461A      0.817463   462A      0.817839  
     463A      0.818902   464A      0.821434   465A      0.822359  
     466A      0.824431   467A      0.826751   468A      0.827056  
     469A      0.827499   470A      0.834128   471A      0.836490  
     472A      0.837319   473A      0.846333   474A      0.847873  
     475A      0.850260   476A      0.856525   477A      0.858038  
     478A      0.866469   479A      0.868119   480A      0.868947  
     481A      0.873349   482A      0.873844   483A      0.874917  
     484A      0.878004   485A      0.879248   486A      0.881698  
     487A      0.894079   488A      0.894391   489A      0.897355  
     490A      0.905059   491A      0.905502   492A      0.906754  
     493A      0.911138   494A      0.912748   495A      0.919446  
     496A      0.924159   497A      0.925122   498A      0.928725  
     499A      0.929407   500A      0.929713   501A      0.938319  
     502A      0.939637   503A      0.941594   504A      0.944618  
     505A      0.945665   506A      0.947628   507A      0.950512  
     508A      0.954405   509A      0.954581   510A      0.956320  
     511A      0.957849   512A      0.959026   513A      0.961760  
     514A      0.965591   515A      0.965731   516A      0.973033  
     517A      0.976248   518A      0.976892   519A      0.977702  
     520A      0.980480   521A      0.986743   522A      0.989617  
     523A      0.992678   524A      0.994187   525A      0.996355  
     526A      0.998358   527A      0.999073   528A      1.001414  
     529A      1.003210   530A      1.004252   531A      1.004584  
     532A      1.007177   533A      1.007986   534A      1.009143  
     535A      1.013380   536A      1.013762   537A      1.015147  
     538A      1.016861   539A      1.017539   540A      1.017890  
     541A      1.018099   542A      1.020835   543A      1.024541  
     544A      1.024977   545A      1.025846   546A      1.036205  
     547A      1.036524   548A      1.037186   549A      1.038188  
     550A      1.041618   551A      1.042375   552A      1.043662  
     553A      1.046539   554A      1.050967   555A      1.053831  
     556A      1.086441   557A      1.090127   558A      1.097994  
     559A      1.105525   560A      1.105940   561A      1.107168  
     562A      1.111576   563A      1.112919   564A      1.125949  
     565A      1.128668   566A      1.139514   567A      1.142693  
     568A      1.145698   569A      1.152155   570A      1.154076  
     571A      1.169391   572A      1.171828   573A      1.173609  
     574A      1.180042   575A      1.191170   576A      1.193533  
     577A      1.194813   578A      1.209552   579A      1.211240  
     580A      1.224393   581A      1.243863   582A      1.247114  
     583A      1.261774   584A      1.266030   585A      1.267293  
     586A      1.271687   587A      1.285317   588A      1.287344  
     589A      1.304637   590A      1.305843   591A      1.320021  
     592A      1.323358   593A      1.327405   594A      1.327809  
     595A      1.344907   596A      1.348033   597A      1.351109  
     598A      1.365231   599A      1.366697   600A      1.367435  
     601A      1.404399   602A      1.405814   603A      1.406875  
     604A      1.420250   605A      1.429014   606A      1.438456  
     607A      1.439092   608A      1.461654   609A      1.464102  
     610A      1.464805   611A      1.491854   612A      1.493364  
     613A      1.494532   614A      1.496586   615A      1.498531  
     616A      1.505669   617A      1.518535   618A      1.520701  
     619A      1.537379   620A      1.538398   621A      1.544221  
     622A      1.570687   623A      1.573006   624A      1.578210  
     625A      1.603858   626A      1.605259   627A      1.613385  
     628A      1.640152   629A      1.644404   630A      1.657686  
     631A      1.682489   632A      1.766781   633A      1.767556  
     634A      1.773589   635A      1.938455   636A      1.942006  
     637A      1.943180   638A      1.999833   639A      2.000332  
     640A      2.000927   641A      2.035057   642A      2.036927  
     643A      2.045298   644A      2.089945   645A      2.093761  

    Final Occupation by Irrep:
              A 
    DOCC [   210 ]

  @RKS Final Energy: -2422.51823727894316

   => Energetics <=

    Nuclear Repulsion Energy =           6343.0645432337532839
    One-Electron Energy =              -15902.7857129183539655
    Two-Electron Energy =                7423.0922092610489926
    DFT Exchange-Correlation Energy =    -285.8892768553921542
    Empirical Dispersion Energy =           0.0000000000000000
    VV10 Nonlocal Energy =                  0.0000000000000000
    Total Energy =                      -2422.5182372789440706

Computation Completed


Properties will be evaluated at   0.000000,   0.000000,   0.000000 [a0]

Properties computed using the B3LYP density matrix

  Nuclear Dipole Moment: [e a0]
     X:   -31.2124      Y:    -1.6578      Z:     1.4490

  Electronic Dipole Moment: [e a0]
     X:    29.8054      Y:     1.8790      Z:    -1.5951

  Dipole Moment: [e a0]
     X:    -1.4070      Y:     0.2213      Z:    -0.1461     Total:     1.4318

  Dipole Moment: [D]
     X:    -3.5762      Y:     0.5624      Z:    -0.3713     Total:     3.6392


*** tstop() called on Rubens-MacBook-Pro-2.local at Wed Jan 20 10:56:57 2021
Module time:
	user time   =    6683.84 seconds =     111.40 minutes
	system time =     130.72 seconds =       2.18 minutes
	total time  =       1188 seconds =      19.80 minutes
Total time:
	user time   =    6683.84 seconds =     111.40 minutes
	system time =     130.72 seconds =       2.18 minutes
	total time  =       1188 seconds =      19.80 minutes

*** tstart() called on Rubens-MacBook-Pro-2.local
*** at Wed Jan 20 10:56:57 2021

   => Loading Basis Set <=

    Name: 6-31G
    Role: ORBITAL
    Keyword: BASIS
    atoms 1, 3, 10, 41, 70, 97                                                                                                                                                                                   entry N          line   102 file /opt/anaconda3/envs/p4env/share/psi4/basis/6-31g.gbs 
    atoms 2, 4, 6-7, 9, 11-12, 14-16, 18-20, 23-24, 26, 29, 31-32, 34-35, 37-38, 40, 43, 45, 50, 52, 56, 58, 62, 64, 72, 74, 78, 80, 84, 86, 90, 92, 98, 102, 106, 108, 112, 114, 118, 120                       entry C          line    87 file /opt/anaconda3/envs/p4env/share/psi4/basis/6-31g.gbs 
    atoms 5, 8, 13, 17, 21-22, 25, 27-28, 30, 33, 36, 39, 44, 46-49, 51, 53-55, 57, 59-61, 63, 65-68, 71, 73, 75-77, 79, 81-83, 85, 87-89, 91, 93-96, 100-101, 103-105, 107, 109-111, 113, 115-117, 119, 121-123 entry H          line    26 file /opt/anaconda3/envs/p4env/share/psi4/basis/6-31g.gbs 
    atoms 42, 69, 99                                                                                                                                                                                             entry O          line   117 file /opt/anaconda3/envs/p4env/share/psi4/basis/6-31g.gbs 


         ---------------------------------------------------------
                                   SCF
               by Justin Turney, Rob Parrish, Andy Simmonett
                          and Daniel G. A. Smith
                              RKS Reference
                        8 Threads,   7629 MiB Core
         ---------------------------------------------------------

  ==> Geometry <==

    Molecular point group: c1
    Full point group: C1

    Geometry (in Angstrom), charge = 0, multiplicity = 1:

       Center              X                  Y                   Z               Mass       
    ------------   -----------------  -----------------  -----------------  -----------------
         N            0.686222871631    -1.121190355680    -0.757322264276    14.003074004430
         C            0.698610789280    -1.128683623466     0.572525498495    12.000000000000
         N            0.680451587816     1.225208757858    -0.660631906153    14.003074004430
         C            0.657201798301     0.142186824287    -2.793646908527    12.000000000000
         H            0.302561934611    -1.863394008817    -5.492858819090     1.007825032230
         C            0.684766360419     1.124388372387     0.665095376664    12.000000000000
         C            0.690069572499    -2.423554424898     1.252888992522    12.000000000000
         H            0.925447053008    -3.544864129674    -0.548573139408     1.007825032230
         C            0.682252662066     0.077596575352    -1.332355134485    12.000000000000
         N            0.700287524903    -0.030842298225     1.322805356436    14.003074004430
         C            0.612272716217    -4.882692658809     2.550914608665    12.000000000000
         C            0.651467407067     2.360031312103     1.447449431454    12.000000000000
         H           -0.672506862345    -5.909791890692   -17.122033289213     1.007825032230
         C            0.481996014010    -1.019215494160    -3.543838636176    12.000000000000
         C            0.482775209359     0.406202938792    -7.058200772115    12.000000000000
         C            0.803606297402     1.366851765539    -3.443123431580    12.000000000000
         H           -1.103679961404    -6.675688314257   -15.592183823750     1.007825032230
         C            0.420391794496    -0.953471129825    -4.921199792252    12.000000000000
         C            0.543901315653     0.272888989978    -5.569818029311    12.000000000000
         C            0.757727555299     1.426635018333    -4.819971739902    12.000000000000
         H            0.573016432380    -6.235568140706   -15.915645598090     1.007825032230
         H            0.881179494112     2.363891327584    -5.341268757048     1.007825032230
         C            0.718530501141     3.486858177788     3.566325977083    12.000000000000
         C            0.778572795264     2.319485693352     2.834939793865    12.000000000000
         H            0.389492694184    -1.961999425427    -3.027848618046     1.007825032230
         C            0.461548829584     3.584005748530     0.808811030218    12.000000000000
         H            0.918893277471     1.365320609284     3.317528343375     1.007825032230
         H            0.347376547456     3.597946253852    -0.263761092122     1.007825032230
         C            0.406390795986     4.750688986029     1.543927200566    12.000000000000
         H            0.438645007886    -3.731621245866     4.360588804256     1.007825032230
         C            0.440910133297     5.936681183666     3.783970287814    12.000000000000
         C            0.542585212996     4.713361152145     2.929806279710    12.000000000000
         H            0.799858140323     3.474703442537     4.642749237774     1.007825032230
         C            0.807644804607    -3.604490256085     0.521784167194    12.000000000000
         C            0.560628035519    -2.481354637557     2.639509863345    12.000000000000
         H            0.489257651786    -1.558470752921     3.193297312085     1.007825032230
         C            0.518135948822    -3.701388195339     3.282920780928    12.000000000000
         C            0.778330028323    -4.821673389093     1.169637582263    12.000000000000
         H            0.879441048307    -5.746544783938     0.622057312610     1.007825032230
         C            0.573531994755    -6.231168312931     3.196736965369    12.000000000000
         N           -0.285795490510    -6.325385042881     4.237795370321    14.003074004430
         O            1.239244494602    -7.165668012186     2.796895549742    15.994914619570
         C           -0.110976647411    -7.323018003099     6.480735285266    12.000000000000
         H            0.198890494320    -8.282300810488     4.562177833432     1.007825032230
         C           -0.460353305349    -7.533999103746     5.007649558976    12.000000000000
         H           -1.497163691919    -7.879258814793     4.918275976117     1.007825032230
         H           -0.838753000528    -5.525069273440     4.499254167547     1.007825032230
         H            0.929222143332    -7.000836715269     6.559125271890     1.007825032230
         H           -0.740608042109    -6.528871171392     6.891790758964     1.007825032230
         C           -0.316442844049    -8.601815666180     7.287764788030    12.000000000000
         H            0.320581385410    -9.389513912508     6.880708599518     1.007825032230
         C            0.003177564206    -8.406539433965     8.767851753782    12.000000000000
         H           -1.353759605774    -8.929426886550     7.184266099447     1.007825032230
         H            1.043962929667    -8.093088701561     8.875386470889     1.007825032230
         H           -0.625195889948    -7.609137593011     9.172170342615     1.007825032230
         C           -0.226243582493    -9.684269927470     9.571459079246    12.000000000000
         H            0.403026892798   -10.481207723828     9.168563333851     1.007825032230
         C            0.084701929045    -9.496444552707    11.054104254868    12.000000000000
         H           -1.266867922347    -9.998192797041     9.458856528902     1.007825032230
         H            1.128711262204    -9.195663478468    11.169204949042     1.007825032230
         H           -0.536369922199    -8.691359127104    11.454373051559     1.007825032230
         C           -0.164127981152   -10.770097639121    11.858453373638    12.000000000000
         H            0.456963162572   -11.575274107860    11.459378887355     1.007825032230
         C            0.145920329428   -10.576989018694    13.337671264345    12.000000000000
         H           -1.208142973191   -11.070596156992    11.742899838460     1.007825032230
         H            1.188455690655   -10.298455458531    13.475551089376     1.007825032230
         H           -0.476163071799    -9.789628604745    13.758053195000     1.007825032230
         H           -0.040438516109   -11.494088890025    13.891650461828     1.007825032230
         O           -0.027438274041     5.903095235076     4.905294243225    15.994914619570
         N            0.928787280703     7.066908004207     3.222305147208    14.003074004430
         H            1.313237324435     7.034356202864     2.292266956637     1.007825032230
         C            0.809649976563     8.361810498646     3.849971628849    12.000000000000
         H            1.786562922082     8.855943979591     3.853419548226     1.007825032230
         C           -0.222913536429     9.238380109515     3.138711845340    12.000000000000
         H            0.499123268657     8.179207260593     4.881127255314     1.007825032230
         H            0.085174184494     9.395058809305     2.101262190810     1.007825032230
         H           -1.179940728654     8.712544017431     3.128665001455     1.007825032230
         C           -0.390947871434    10.588274504346     3.829807183895    12.000000000000
         H            0.564772086059    11.117689338484     3.830350650267     1.007825032230
         C           -1.448422443071    11.449070460765     3.142769407144    12.000000000000
         H           -0.679261699934    10.424341459927     4.870020644893     1.007825032230
         H           -1.162298117804    11.612797043716     2.100923481793     1.007825032230
         H           -2.401072223415    10.914434158163     3.142819127824     1.007825032230
         C           -1.630101077318    12.798461420753     3.833283892458    12.000000000000
         H           -0.685468153963    13.347114904779     3.810770509669     1.007825032230
         C           -2.718830940440    13.637034614317     3.168383164257    12.000000000000
         H           -1.890817876285    12.634516789172     4.881429633799     1.007825032230
         H           -2.464610073542    13.791501772233     2.116904602753     1.007825032230
         H           -3.664299491570    13.090353965100     3.201745816135     1.007825032230
         C           -2.899143971995    14.992991331848     3.846259457466    12.000000000000
         H           -1.958558349695    15.546838768740     3.801252664356     1.007825032230
         C           -4.001893971981    15.812426133660     3.187270199507    12.000000000000
         H           -3.141748686909    14.839474408284     4.900256260120     1.007825032230
         H           -3.771586665785    15.988251086407     2.138603364544     1.007825032230
         H           -4.952744470002    15.286829464365     3.244177747499     1.007825032230
         H           -4.112061651063    16.775297048298     3.680622530505     1.007825032230
         N           -0.422236697462    -0.404682664669    -7.653739042898    14.003074004430
         C           -0.640711844660    -0.423393436311    -9.080651797283    12.000000000000
         O            1.169144954448     1.199970343381    -7.670705381021    15.994914619570
         H           -0.991195635189    -1.013976712029    -7.088357626346     1.007825032230
         H            0.040937993830     0.316083034653    -9.506822499363     1.007825032230
         C           -0.372992524389    -1.803644151291    -9.679991424819    12.000000000000
         H           -1.671530270068    -0.118994892521    -9.297710176757     1.007825032230
         H            0.661547154385    -2.087430817129    -9.477412483372     1.007825032230
         H           -1.023713492934    -2.539730549669    -9.199664186070     1.007825032230
         C           -0.623794107521    -1.809978392454   -11.185365394134    12.000000000000
         H            0.032849935584    -1.079121448150   -11.661455916333     1.007825032230
         C           -0.383512541102    -3.184666855852   -11.804426238023    12.000000000000
         H           -1.654572153961    -1.503495129922   -11.379418200399     1.007825032230
         H            0.649786489025    -3.488178724815   -11.622188832557     1.007825032230
         H           -1.033288109641    -3.918529916965   -11.321317113656     1.007825032230
         C           -0.653399606942    -3.185340144966   -13.307176179394    12.000000000000
         H           -0.005079335326    -2.450407321693   -13.789860771100     1.007825032230
         C           -0.416113292856    -4.556571101318   -13.934529813697    12.000000000000
         H           -1.687209941423    -2.880654422011   -13.487526901619     1.007825032230
         H            0.620458750403    -4.857058683304   -13.764517279986     1.007825032230
         H           -1.057515236229    -5.293714989336   -13.445316837979     1.007825032230
         C           -0.701359523839    -4.558961385507   -15.434427207179    12.000000000000
         H           -0.061146370207    -3.821549115283   -15.923993557673     1.007825032230
         C           -0.461534343649    -5.929523768762   -16.055363889666    12.000000000000
         H           -1.738391725530    -4.260085212596   -15.604283914346     1.007825032230
         H            0.956643175133     2.255081924757    -2.850920748869     1.007825032230
         H            0.222281037435     5.686513935096     1.035004847718     1.007825032230

  Running in c1 symmetry.

  Rotational constants: A =      0.00048  B =      0.00045  C =      0.00024 [cm^-1]
  Rotational constants: A =     14.37352  B =     13.63930  C =      7.13042 [MHz]
  Nuclear repulsion = 6343.033330856120301

  Charge       = 0
  Multiplicity = 1
  Electrons    = 420
  Nalpha       = 210
  Nbeta        = 210

  ==> Algorithm <==

  SCF Algorithm Type is DIRECT.
  DIIS enabled.
  MOM disabled.
  Fractional occupation disabled.
  Guess Type is SAD.
  Energy threshold   = 1.00e-06
  Density threshold  = 1.00e-08
  Integral threshold = 0.00e+00

  ==> Primary Basis <==

  Basis Set: 6-31G
    Blend: 6-31G
    Number of shells: 417
    Number of basis function: 645
    Number of Cartesian functions: 645
    Spherical Harmonics?: false
    Max angular momentum: 1

  ==> DFT Potential <==

   => Composite Functional: B3LYP <= 

    B3LYP Hyb-GGA Exchange-Correlation Functional

    P. J. Stephens, F. J. Devlin, C. F. Chabalowski, and M. J. Frisch, J. Phys. Chem. 98, 11623 (1994)

    Deriv               =              1
    GGA                 =           TRUE
    Meta                =          FALSE

    Exchange Hybrid     =           TRUE
    MP2 Hybrid          =          FALSE

   => Exchange Functionals <=

    0.0800   Slater exchange
    0.7200         Becke 88

   => Exact (HF) Exchange <=

    0.2000               HF 

   => Correlation Functionals <=

    0.1900   Vosko, Wilk & Nusair (VWN5_RPA)
    0.8100   Lee, Yang & Parr

   => Molecular Quadrature <=

    Radial Scheme          =       TREUTLER
    Pruning Scheme         =           FLAT
    Nuclear Scheme         =       TREUTLER

    BS radius alpha        =              1
    Pruning alpha          =              1
    Radial Points          =             75
    Spherical Points       =            302
    Total Points           =        2738403
    Total Blocks           =          19828
    Max Points             =            256
    Max Functions          =            221

   => Loading Basis Set <=

    Name: (6-31G AUX)
    Role: JKFIT
    Keyword: DF_BASIS_SCF
    atoms 1, 3, 10, 41, 70, 97                                                                                                                                                                                   entry N          line   171 file /opt/anaconda3/envs/p4env/share/psi4/basis/cc-pvdz-jkfit.gbs 
    atoms 2, 4, 6-7, 9, 11-12, 14-16, 18-20, 23-24, 26, 29, 31-32, 34-35, 37-38, 40, 43, 45, 50, 52, 56, 58, 62, 64, 72, 74, 78, 80, 84, 86, 90, 92, 98, 102, 106, 108, 112, 114, 118, 120                       entry C          line   121 file /opt/anaconda3/envs/p4env/share/psi4/basis/cc-pvdz-jkfit.gbs 
    atoms 5, 8, 13, 17, 21-22, 25, 27-28, 30, 33, 36, 39, 44, 46-49, 51, 53-55, 57, 59-61, 63, 65-68, 71, 73, 75-77, 79, 81-83, 85, 87-89, 91, 93-96, 100-101, 103-105, 107, 109-111, 113, 115-117, 119, 121-123 entry H          line    51 file /opt/anaconda3/envs/p4env/share/psi4/basis/cc-pvdz-jkfit.gbs 
    atoms 42, 69, 99                                                                                                                                                                                             entry O          line   221 file /opt/anaconda3/envs/p4env/share/psi4/basis/cc-pvdz-jkfit.gbs 

  Starting with a DF guess...

  ==> Pre-Iterations <==

   -------------------------------------------------------
    Irrep   Nso     Nmo     Nalpha   Nbeta   Ndocc  Nsocc
   -------------------------------------------------------
     A        645     645       0       0       0       0
   -------------------------------------------------------
    Total     645     645     210     210     210       0
   -------------------------------------------------------

  ==> Integral Setup <==

  Perturbing V by 0.001000 mu(x).
  ==> DiskDFJK: Density-Fitted J/K Matrices <==

    J tasked:                  Yes
    K tasked:                  Yes
    wK tasked:                  No
    OpenMP threads:              8
    Integrals threads:           8
    Memory [MiB]:             3639
    Algorithm:                Disk
    Integral Cache:           NONE
    Schwarz Cutoff:          1E-12
    Fitting Condition:       1E-10

   => Auxiliary Basis Set <=

  Basis Set: (6-31G AUX)
    Blend: CC-PVDZ-JKFIT
    Number of shells: 1962
    Number of basis function: 6267
    Number of Cartesian functions: 6267
    Spherical Harmonics?: false
    Max angular momentum: 3

  Cached 25.0% of DFT collocation blocks in 2.157 [GiB].

  Minimum eigenvalue in the overlap matrix is 4.7402885756E-04.
  Using Symmetric Orthogonalization.

  SCF Guess: Superposition of Atomic Densities via on-the-fly atomic UHF.

  ==> Iterations <==

                           Total Energy        Delta E     RMS |[F,P]|

   @DF-RKS iter SAD: -2420.28182970982652   -2.42028e+03   0.00000e+00 
   @DF-RKS iter   1: -2419.30965853182624    9.72171e-01   3.81614e-03 DIIS
   @DF-RKS iter   2: -2418.18119119323092    1.12847e+00   4.54922e-03 DIIS
   @DF-RKS iter   3: -2422.31975354991573   -4.13856e+00   1.05775e-03 DIIS
   @DF-RKS iter   4: -2422.50226786237636   -1.82514e-01   3.10957e-04 DIIS
   @DF-RKS iter   5: -2422.51761504489605   -1.53472e-02   9.84226e-05 DIIS
   @DF-RKS iter   6: -2422.51953400430239   -1.91896e-03   2.76183e-05 DIIS
   @DF-RKS iter   7: -2422.51968401544036   -1.50011e-04   5.78303e-06 DIIS
   @DF-RKS iter   8: -2422.51968952325342   -5.50781e-06   2.77938e-06 DIIS
   @DF-RKS iter   9: -2422.51969109472475   -1.57147e-06   6.40318e-07 DIIS
   @DF-RKS iter  10: -2422.51969115407155   -5.93468e-08   3.82870e-07 DIIS
   @DF-RKS iter  11: -2422.51969118141369   -2.73421e-08   7.41459e-08 DIIS
   @DF-RKS iter  12: -2422.51969118232546   -9.11768e-10   3.36080e-08 DIIS
   @DF-RKS iter  13: -2422.51969118255329   -2.27828e-10   1.32068e-08 DIIS
   @DF-RKS iter  14: -2422.51969118259422   -4.09273e-11   2.28605e-09 DIIS

  DF guess converged.

  ==> DirectJK: Integral-Direct J/K Matrices <==

    J tasked:                  Yes
    K tasked:                  Yes
    wK tasked:                  No
    Integrals threads:           8
    Schwarz Cutoff:          1E-12

   @RKS iter  15: -2422.51980852024008   -2.42252e+03   4.15273e-07 DIIS
   @RKS iter  16: -2422.51980857974786   -5.95078e-08   1.10990e-07 DIIS
   @RKS iter  17: -2422.51980857948774    2.60115e-10   1.24593e-07 DIIS
   @RKS iter  18: -2422.51980858239040   -2.90265e-09   3.83764e-08 DIIS
   @RKS iter  19: -2422.51980858262641   -2.36014e-10   1.05886e-08 DIIS
   @RKS iter  20: -2422.51980858264233   -1.59162e-11   2.87635e-09 DIIS
  Energy and wave function converged.


  ==> Post-Iterations <==

    Orbital Energies [Eh]
    ---------------------

    Doubly Occupied:                                                      

       1A    -19.111900     2A    -19.111890     3A    -19.111699  
       4A    -14.357535     5A    -14.356713     6A    -14.356505  
       7A    -14.354441     8A    -14.354277     9A    -14.354206  
      10A    -10.291306    11A    -10.291165    12A    -10.290968  
      13A    -10.288594    14A    -10.288577    15A    -10.288533  
      16A    -10.214732    17A    -10.213358    18A    -10.213295  
      19A    -10.208727    20A    -10.208674    21A    -10.208499  
      22A    -10.207732    23A    -10.207658    24A    -10.207467  
      25A    -10.203457    26A    -10.202919    27A    -10.202645  
      28A    -10.199213    29A    -10.199055    30A    -10.198773  
      31A    -10.197004    32A    -10.196914    33A    -10.196870  
      34A    -10.195569    35A    -10.195400    36A    -10.195096  
      37A    -10.180404    38A    -10.180152    39A    -10.178856  
      40A    -10.175654    41A    -10.175345    42A    -10.174296  
      43A    -10.172392    44A    -10.171949    45A    -10.169553  
      46A    -10.169422    47A    -10.169350    48A    -10.168822  
      49A    -10.168808    50A    -10.168372    51A    -10.167715  
      52A    -10.166160    53A    -10.164412    54A    -10.163449  
      55A    -10.161864    56A    -10.161002    57A    -10.154863  
      58A     -1.070645    59A     -1.061212    60A     -1.061141  
      61A     -1.060894    62A     -0.944514    63A     -0.944485  
      64A     -0.937767    65A     -0.936853    66A     -0.936802  
      67A     -0.881986    68A     -0.880838    69A     -0.880671  
      70A     -0.819637    71A     -0.819238    72A     -0.817059  
      73A     -0.801740    74A     -0.801193    75A     -0.797604  
      76A     -0.790746    77A     -0.789284    78A     -0.784593  
      79A     -0.768475    80A     -0.767996    81A     -0.767836  
      82A     -0.755978    83A     -0.755067    84A     -0.752418  
      85A     -0.720133    86A     -0.719418    87A     -0.710222  
      88A     -0.698883    89A     -0.697895    90A     -0.669699  
      91A     -0.657884    92A     -0.656498    93A     -0.644591  
      94A     -0.636107    95A     -0.628346    96A     -0.627970  
      97A     -0.613857    98A     -0.613511    99A     -0.604211  
     100A     -0.602817   101A     -0.601101   102A     -0.598330  
     103A     -0.592555   104A     -0.592208   105A     -0.582540  
     106A     -0.582143   107A     -0.580583   108A     -0.577010  
     109A     -0.576366   110A     -0.572536   111A     -0.571721  
     112A     -0.563517   113A     -0.553335   114A     -0.552650  
     115A     -0.537089   116A     -0.501094   117A     -0.501008  
     118A     -0.493081   119A     -0.492024   120A     -0.490035  
     121A     -0.486831   122A     -0.481226   123A     -0.480773  
     124A     -0.479664   125A     -0.472776   126A     -0.472353  
     127A     -0.469793   128A     -0.467177   129A     -0.466496  
     130A     -0.465689   131A     -0.459322   132A     -0.452082  
     133A     -0.451964   134A     -0.444043   135A     -0.443880  
     136A     -0.442003   137A     -0.439403   138A     -0.439135  
     139A     -0.437625   140A     -0.434421   141A     -0.432183  
     142A     -0.431297   143A     -0.427859   144A     -0.427061  
     145A     -0.424115   146A     -0.418545   147A     -0.414913  
     148A     -0.413697   149A     -0.412830   150A     -0.411343  
     151A     -0.410381   152A     -0.401885   153A     -0.400732  
     154A     -0.395060   155A     -0.393225   156A     -0.393114  
     157A     -0.391480   158A     -0.389513   159A     -0.388765  
     160A     -0.383339   161A     -0.378287   162A     -0.376730  
     163A     -0.374229   164A     -0.371105   165A     -0.369091  
     166A     -0.367651   167A     -0.365065   168A     -0.364317  
     169A     -0.363702   170A     -0.361741   171A     -0.360042  
     172A     -0.359065   173A     -0.357420   174A     -0.357302  
     175A     -0.356332   176A     -0.353318   177A     -0.344277  
     178A     -0.343786   179A     -0.340409   180A     -0.340050  
     181A     -0.338532   182A     -0.338078   183A     -0.338044  
     184A     -0.335289   185A     -0.328832   186A     -0.328359  
     187A     -0.325820   188A     -0.325663   189A     -0.325059  
     190A     -0.323113   191A     -0.322454   192A     -0.321405  
     193A     -0.318392   194A     -0.303777   195A     -0.303181  
     196A     -0.300639   197A     -0.272396   198A     -0.271933  
     199A     -0.269821   200A     -0.269691   201A     -0.269269  
     202A     -0.267517   203A     -0.263901   204A     -0.263485  
     205A     -0.250616   206A     -0.250395   207A     -0.250115  
     208A     -0.249292   209A     -0.248485   210A     -0.248298  

    Virtual:                                                              

     211A     -0.084174   212A     -0.083826   213A     -0.040993  
     214A     -0.012194   215A     -0.011868   216A     -0.010844  
     217A      0.003909   218A      0.004806   219A      0.045617  
     220A      0.068128   221A      0.068897   222A      0.072828  
     223A      0.075545   224A      0.076413   225A      0.085524  
     226A      0.086090   227A      0.087850   228A      0.094680  
     229A      0.097395   230A      0.098488   231A      0.101157  
     232A      0.107664   233A      0.108751   234A      0.112146  
     235A      0.113700   236A      0.115425   237A      0.116746  
     238A      0.119338   239A      0.119860   240A      0.121359  
     241A      0.122094   242A      0.122671   243A      0.124834  
     244A      0.133593   245A      0.134421   246A      0.138222  
     247A      0.144250   248A      0.145472   249A      0.146804  
     250A      0.147905   251A      0.148885   252A      0.154564  
     253A      0.155512   254A      0.157087   255A      0.159269  
     256A      0.162553   257A      0.165796   258A      0.168012  
     259A      0.170781   260A      0.172587   261A      0.174556  
     262A      0.175732   263A      0.177355   264A      0.177997  
     265A      0.179357   266A      0.181193   267A      0.187130  
     268A      0.189092   269A      0.189393   270A      0.190390  
     271A      0.194384   272A      0.194786   273A      0.195495  
     274A      0.196051   275A      0.196843   276A      0.198670  
     277A      0.199044   278A      0.199596   279A      0.199846  
     280A      0.200266   281A      0.202696   282A      0.202972  
     283A      0.212466   284A      0.212564   285A      0.212840  
     286A      0.214043   287A      0.214650   288A      0.216995  
     289A      0.217589   290A      0.218741   291A      0.219797  
     292A      0.221889   293A      0.222279   294A      0.224061  
     295A      0.224360   296A      0.225170   297A      0.226901  
     298A      0.229682   299A      0.230235   300A      0.240386  
     301A      0.240580   302A      0.244595   303A      0.249400  
     304A      0.249780   305A      0.251312   306A      0.253049  
     307A      0.253213   308A      0.254798   309A      0.257538  
     310A      0.259171   311A      0.259431   312A      0.261234  
     313A      0.273242   314A      0.273733   315A      0.276435  
     316A      0.287190   317A      0.290994   318A      0.291998  
     319A      0.295833   320A      0.296746   321A      0.309373  
     322A      0.310273   323A      0.310595   324A      0.312869  
     325A      0.316269   326A      0.324398   327A      0.326165  
     328A      0.329383   329A      0.332968   330A      0.333848  
     331A      0.341353   332A      0.349563   333A      0.349889  
     334A      0.351019   335A      0.372265   336A      0.372571  
     337A      0.387929   338A      0.389430   339A      0.398625  
     340A      0.417855   341A      0.423701   342A      0.424162  
     343A      0.454127   344A      0.455093   345A      0.472270  
     346A      0.484139   347A      0.491555   348A      0.491988  
     349A      0.494700   350A      0.501193   351A      0.505100  
     352A      0.508683   353A      0.515588   354A      0.522682  
     355A      0.526800   356A      0.531056   357A      0.532698  
     358A      0.536314   359A      0.545478   360A      0.546387  
     361A      0.547164   362A      0.548621   363A      0.551056  
     364A      0.552103   365A      0.553106   366A      0.556548  
     367A      0.557656   368A      0.561838   369A      0.562455  
     370A      0.573790   371A      0.574285   372A      0.575695  
     373A      0.576109   374A      0.576481   375A      0.577813  
     376A      0.581442   377A      0.582088   378A      0.582528  
     379A      0.583707   380A      0.589819   381A      0.591604  
     382A      0.594390   383A      0.595029   384A      0.595894  
     385A      0.597265   386A      0.598153   387A      0.600122  
     388A      0.601828   389A      0.602604   390A      0.603403  
     391A      0.605277   392A      0.605914   393A      0.608379  
     394A      0.609388   395A      0.611060   396A      0.611997  
     397A      0.618611   398A      0.619876   399A      0.620370  
     400A      0.621335   401A      0.624078   402A      0.624893  
     403A      0.627987   404A      0.629460   405A      0.631750  
     406A      0.634337   407A      0.637900   408A      0.643982  
     409A      0.646197   410A      0.647185   411A      0.648802  
     412A      0.653983   413A      0.655101   414A      0.657828  
     415A      0.660704   416A      0.661013   417A      0.662562  
     418A      0.671477   419A      0.673078   420A      0.675353  
     421A      0.678543   422A      0.679860   423A      0.680623  
     424A      0.682658   425A      0.684045   426A      0.684532  
     427A      0.685501   428A      0.685588   429A      0.688070  
[...]

  Starting with a DF guess...

  ==> Pre-Iterations <==

   -------------------------------------------------------
    Irrep   Nso     Nmo     Nalpha   Nbeta   Ndocc  Nsocc
   -------------------------------------------------------
     A        645     645       0       0       0       0
   -------------------------------------------------------
    Total     645     645     210     210     210       0
   -------------------------------------------------------

  ==> Integral Setup <==

  Perturbing V by -0.002000 mu(z).
  ==> DiskDFJK: Density-Fitted J/K Matrices <==

    J tasked:                  Yes
    K tasked:                  Yes
    wK tasked:                  No
    OpenMP threads:              8
    Integrals threads:           8
    Memory [MiB]:             3639
    Algorithm:                Disk
    Integral Cache:           NONE
    Schwarz Cutoff:          1E-12
    Fitting Condition:       1E-10

   => Auxiliary Basis Set <=

  Basis Set: (6-31G AUX)
    Blend: CC-PVDZ-JKFIT
    Number of shells: 1962
    Number of basis function: 6267
    Number of Cartesian functions: 6267
    Spherical Harmonics?: false
    Max angular momentum: 3

  Cached 25.0% of DFT collocation blocks in 2.157 [GiB].

  Minimum eigenvalue in the overlap matrix is 4.7402885756E-04.
  Using Symmetric Orthogonalization.

  SCF Guess: Superposition of Atomic Densities via on-the-fly atomic UHF.

  ==> Iterations <==

                           Total Energy        Delta E     RMS |[F,P]|

   @DF-RKS iter SAD: -2420.28182970550597   -2.42028e+03   0.00000e+00 
   @DF-RKS iter   1: -2419.31007300214924    9.71757e-01   3.81538e-03 DIIS
   @DF-RKS iter   2: -2418.18165664169283    1.12842e+00   4.54667e-03 DIIS
   @DF-RKS iter   3: -2422.32154243519290   -4.13989e+00   1.05165e-03 DIIS
   @DF-RKS iter   4: -2422.50165315874256   -1.80111e-01   3.13289e-04 DIIS
   @DF-RKS iter   5: -2422.51722150292517   -1.55683e-02   9.88199e-05 DIIS
   @DF-RKS iter   6: -2422.51914856665826   -1.92706e-03   2.85782e-05 DIIS
   @DF-RKS iter   7: -2422.51930523284864   -1.56666e-04   7.27423e-06 DIIS
   @DF-RKS iter   8: -2422.51931168096917   -6.44812e-06   4.74766e-06 DIIS
   @DF-RKS iter   9: -2422.51931560466028   -3.92369e-06   7.74363e-07 DIIS
   @DF-RKS iter  10: -2422.51931569037288   -8.57126e-08   4.00113e-07 DIIS
   @DF-RKS iter  11: -2422.51931572201102   -3.16381e-08   7.84532e-08 DIIS
   @DF-RKS iter  12: -2422.51931572323610   -1.22509e-09   3.34072e-08 DIIS
   @DF-RKS iter  13: -2422.51931572347166   -2.35559e-10   1.44793e-08 DIIS
   @DF-RKS iter  14: -2422.51931572351850   -4.68390e-11   3.41688e-09 DIIS

  DF guess converged.

  ==> DirectJK: Integral-Direct J/K Matrices <==

    J tasked:                  Yes
    K tasked:                  Yes
    wK tasked:                  No
    Integrals threads:           8
    Schwarz Cutoff:          1E-12

   @RKS iter  15: -2422.51943310209526   -2.42252e+03   4.15238e-07 DIIS
   @RKS iter  16: -2422.51943316159350   -5.94982e-08   1.11436e-07 DIIS
   @RKS iter  17: -2422.51943316125244    3.41061e-10   1.26736e-07 DIIS
   @RKS iter  18: -2422.51943316423194   -2.97950e-09   3.96687e-08 DIIS
   @RKS iter  19: -2422.51943316448524   -2.53294e-10   1.05673e-08 DIIS
   @RKS iter  20: -2422.51943316449615   -1.09139e-11   2.88179e-09 DIIS
  Energy and wave function converged.


  ==> Post-Iterations <==

    Orbital Energies [Eh]
    ---------------------

    Doubly Occupied:                                                      

       1A    -19.133738     2A    -19.100273     3A    -19.099797  
       4A    -14.380603     5A    -14.354155     6A    -14.353910  
       7A    -14.351970     8A    -14.346265     9A    -14.343416  
      10A    -10.312443    11A    -10.289875    12A    -10.286472  
      13A    -10.286393    14A    -10.280098    15A    -10.279269  
      16A    -10.244360    17A    -10.224897    18A    -10.221891  
      19A    -10.219335    20A    -10.218843    21A    -10.217215  
      22A    -10.217040    23A    -10.215937    24A    -10.215328  
      25A    -10.214985    26A    -10.214295    27A    -10.209284  
      28A    -10.208294    29A    -10.206720    30A    -10.201785  
      31A    -10.201748    32A    -10.201553    33A    -10.201026  
      34A    -10.200749    35A    -10.196935    36A    -10.196270  
      37A    -10.193998    38A    -10.193823    39A    -10.191669  
      40A    -10.191623    41A    -10.189464    42A    -10.188911  
      43A    -10.186370    44A    -10.168441    45A    -10.162610  
      46A    -10.160446    47A    -10.158142    48A    -10.156320  
      49A    -10.156157    50A    -10.156076    51A    -10.149907  
      52A    -10.149750    53A    -10.141355    54A    -10.135082  
      55A    -10.129018    56A    -10.127310    57A    -10.114631  
      58A     -1.083100    59A     -1.069682    60A     -1.049598  
      61A     -1.048927    62A     -0.961341    63A     -0.943857  
      64A     -0.943299    65A     -0.926377    66A     -0.923419  
      67A     -0.892429    68A     -0.874652    69A     -0.874072  
      70A     -0.864310    71A     -0.839917    72A     -0.810498  
      73A     -0.807260    74A     -0.796352    75A     -0.795067  
      76A     -0.790934    77A     -0.784529    78A     -0.779357  
      79A     -0.777901    80A     -0.762343    81A     -0.761191  
      82A     -0.759481    83A     -0.751947    84A     -0.743860  
      85A     -0.727268    86A     -0.716721    87A     -0.709433  
      88A     -0.697838    89A     -0.691600    90A     -0.678727  
      91A     -0.661005    92A     -0.650051    93A     -0.646445  
      94A     -0.638042    95A     -0.632697    96A     -0.629352  
      97A     -0.627584    98A     -0.626073    99A     -0.619696  
     100A     -0.617330   101A     -0.606997   102A     -0.602611  
     103A     -0.591398   104A     -0.585896   105A     -0.582674  
     106A     -0.574929   107A     -0.570816   108A     -0.570575  
     109A     -0.570249   110A     -0.564538   111A     -0.555882  
     112A     -0.552387   113A     -0.544323   114A     -0.538678  
     115A     -0.537351   116A     -0.534507   117A     -0.517295  
     118A     -0.508874   119A     -0.499135   120A     -0.493192  
     121A     -0.487467   122A     -0.485514   123A     -0.482699  
     124A     -0.480554   125A     -0.477939   126A     -0.472653  
     127A     -0.472403   128A     -0.469076   129A     -0.465932  
     130A     -0.463153   131A     -0.460936   132A     -0.458090  
     133A     -0.457150   134A     -0.453950   135A     -0.450731  
     136A     -0.449208   137A     -0.443770   138A     -0.442707  
     139A     -0.439184   140A     -0.433703   141A     -0.432680  
     142A     -0.429844   143A     -0.428953   144A     -0.427803  
     145A     -0.422555   146A     -0.419432   147A     -0.416556  
     148A     -0.415530   149A     -0.410653   150A     -0.409458  
     151A     -0.404696   152A     -0.404126   153A     -0.402231  
     154A     -0.399086   155A     -0.396186   156A     -0.395356  
     157A     -0.392569   158A     -0.389328   159A     -0.387281  
     160A     -0.384022   161A     -0.383590   162A     -0.382858  
     163A     -0.379988   164A     -0.374151   165A     -0.373873  
     166A     -0.372470   167A     -0.370950   168A     -0.370176  
     169A     -0.369644   170A     -0.369474   171A     -0.367448  
     172A     -0.365103   173A     -0.360524   174A     -0.357428  
     175A     -0.353020   176A     -0.351504   177A     -0.349737  
     178A     -0.348904   179A     -0.346937   180A     -0.345327  
     181A     -0.340065   182A     -0.334671   183A     -0.333024  
     184A     -0.328509   185A     -0.328080   186A     -0.325953  
     187A     -0.316230   188A     -0.313000   189A     -0.311505  
     190A     -0.310379   191A     -0.305663   192A     -0.295649  
     193A     -0.292021   194A     -0.286930   195A     -0.283227  
     196A     -0.282654   197A     -0.281102   198A     -0.273880  
     199A     -0.271069   200A     -0.268817   201A     -0.268467  
     202A     -0.265926   203A     -0.262901   204A     -0.262358  
     205A     -0.257370   206A     -0.256739   207A     -0.239085  
     208A     -0.239013   209A     -0.238507   210A     -0.234567  

    Virtual:                                                              

     211A     -0.086915   212A     -0.080298   213A     -0.040954  
     214A     -0.022761   215A     -0.007666   216A     -0.004223  
     217A      0.001148   218A      0.011266   219A      0.036225  
     220A      0.041090   221A      0.047443   222A      0.054375  
     223A      0.065330   224A      0.066358   225A      0.074886  
     226A      0.076130   227A      0.077757   228A      0.080857  
     229A      0.088558   230A      0.091133   231A      0.096446  
     232A      0.098362   233A      0.103011   234A      0.107896  
     235A      0.110009   236A      0.112088   237A      0.113552  
     238A      0.116024   239A      0.118249   240A      0.119219  
     241A      0.123287   242A      0.128997   243A      0.130094  
     244A      0.133106   245A      0.134280   246A      0.136531  
     247A      0.137063   248A      0.141608   249A      0.142754  
     250A      0.147867   251A      0.148189   252A      0.150342  
     253A      0.152306   254A      0.153712   255A      0.154909  
     256A      0.156683   257A      0.156942   258A      0.159795  
     259A      0.162439   260A      0.163252   261A      0.166095  
     262A      0.168981   263A      0.169692   264A      0.172316  
     265A      0.174112   266A      0.175328   267A      0.175855  
     268A      0.178535   269A      0.181007   270A      0.183210  
     271A      0.184327   272A      0.187185   273A      0.188894  
     274A      0.189579   275A      0.192304   276A      0.199201  
     277A      0.203223   278A      0.204768   279A      0.206530  
     280A      0.207729   281A      0.210092   282A      0.211021  
     283A      0.211675   284A      0.212679   285A      0.216541  
     286A      0.222500   287A      0.223065   288A      0.225181  
     289A      0.226308   290A      0.227641   291A      0.228617  
     292A      0.229906   293A      0.232279   294A      0.233427  
     295A      0.235178   296A      0.237516   297A      0.237875  
     298A      0.240365   299A      0.240437   300A      0.241378  
     301A      0.243658   302A      0.247206   303A      0.248946  
     304A      0.253133   305A      0.253834   306A      0.255509  
     307A      0.257144   308A      0.260282   309A      0.261178  
     310A      0.264508   311A      0.269123   312A      0.274601  
     313A      0.278247   314A      0.283568   315A      0.284359  
     316A      0.285565   317A      0.288758   318A      0.290798  
     319A      0.293319   320A      0.299185   321A      0.302148  
     322A      0.308006   323A      0.312522   324A      0.315809  
     325A      0.320764   326A      0.325132   327A      0.328375  
     328A      0.332594   329A      0.337874   330A      0.345061  
     331A      0.348302   332A      0.354619   333A      0.357420  
     334A      0.363916   335A      0.373003   336A      0.375754  
     337A      0.383539   338A      0.392113   339A      0.403275  
     340A      0.411561   341A      0.427697   342A      0.430534  
     343A      0.445565   344A      0.450612   345A      0.462192  
     346A      0.471842   347A      0.479616   348A      0.490712  
     349A      0.497800   350A      0.502209   351A      0.504336  
     352A      0.506680   353A      0.511063   354A      0.512769  
     355A      0.518353   356A      0.518927   357A      0.521352  
     358A      0.525707   359A      0.532658   360A      0.538418  
     361A      0.540767   362A      0.545184   363A      0.545870  
     364A      0.549878   365A      0.552023   366A      0.556891  
     367A      0.558426   368A      0.558837   369A      0.564811  
     370A      0.566861   371A      0.567217   372A      0.571008  
     373A      0.573956   374A      0.576597   375A      0.577047  
     376A      0.578976   377A      0.580694   378A      0.582231  
     379A      0.583766   380A      0.586014   381A      0.587634  
     382A      0.588436   383A      0.592772   384A      0.594634  
     385A      0.595168   386A      0.597648   387A      0.601214  
     388A      0.603631   389A      0.607241   390A      0.610313  
     391A      0.611360   392A      0.612862   393A      0.614476  
     394A      0.616757   395A      0.617651   396A      0.619531  
     397A      0.620190   398A      0.624138   399A      0.625438  
     400A      0.628478   401A      0.629993   402A      0.630832  
     403A      0.632276   404A      0.634250   405A      0.635718  
     406A      0.638322   407A      0.639056   408A      0.641949  
     409A      0.643763   410A      0.644542   411A      0.646390  
     412A      0.647381   413A      0.651588   414A      0.653068  
     415A      0.654768   416A      0.659720   417A      0.660219  
     418A      0.667177   419A      0.667645   420A      0.670301  
     421A      0.674371   422A      0.678677   423A      0.681467  
     424A      0.682591   425A      0.687747   426A      0.691048  
     427A      0.692395   428A      0.693794   429A      0.695975  
     430A      0.698420   431A      0.699468   432A      0.705298  
     433A      0.711830   434A      0.713976   435A      0.718035  
     436A      0.718772   437A      0.729289   438A      0.732007  
     439A      0.734996   440A      0.735755   441A      0.740487  
     442A      0.747274   443A      0.749808   444A      0.750752  
     445A      0.754735   446A      0.756203   447A      0.756968  
     448A      0.757569   449A      0.758015   450A      0.769044  
     451A      0.771900   452A      0.777259   453A      0.777510  
     454A      0.781312   455A      0.783505   456A      0.790392  
     457A      0.793938   458A      0.802472   459A      0.805626  
     460A      0.808670   461A      0.811486   462A      0.816336  
     463A      0.817950   464A      0.821892   465A      0.828163  
     466A      0.829006   467A      0.829883   468A      0.830885  
     469A      0.831615   470A      0.835282   471A      0.839723  
     472A      0.844479   473A      0.846351   474A      0.848802  
     475A      0.852394   476A      0.853836   477A      0.856375  
     478A      0.859923   479A      0.862065   480A      0.862451  
     481A      0.864778   482A      0.865552   483A      0.873309  
     484A      0.876801   485A      0.885355   486A      0.886791  
     487A      0.893671   488A      0.894214   489A      0.900601  
     490A      0.901947   491A      0.906414   492A      0.908238  
     493A      0.909986   494A      0.910586   495A      0.912549  
     496A      0.913665   497A      0.919819   498A      0.920716  
     499A      0.924515   500A      0.930649   501A      0.935089  
     502A      0.936745   503A      0.940343   504A      0.940503  
     505A      0.943865   506A      0.949627   507A      0.950779  
     508A      0.951389   509A      0.952001   510A      0.954660  
     511A      0.956631   512A      0.956713   513A      0.959346  
     514A      0.963651   515A      0.964503   516A      0.968350  
     517A      0.971919   518A      0.972397   519A      0.973376  
     520A      0.975377   521A      0.976387   522A      0.982195  
     523A      0.986197   524A      0.988177   525A      0.989789  
     526A      0.993448   527A      0.996309   528A      0.996500  
     529A      0.999249   530A      1.006179   531A      1.007488  
     532A      1.011006   533A      1.012124   534A      1.013270  
     535A      1.015150   536A      1.017199   537A      1.021505  
     538A      1.022614   539A      1.027903   540A      1.030357  
     541A      1.032674   542A      1.033553   543A      1.036261  
     544A      1.037705   545A      1.038020   546A      1.039232  
     547A      1.044643   548A      1.048719   549A      1.049413  
     550A      1.053461   551A      1.057441   552A      1.058068  
     553A      1.059103   554A      1.067986   555A      1.069982  
     556A      1.072184   557A      1.073404   558A      1.090688  
     559A      1.098764   560A      1.111001   561A      1.113711  
     562A      1.115505   563A      1.121958   564A      1.124624  
     565A      1.132223   566A      1.136542   567A      1.142627  
     568A      1.148646   569A      1.154823   570A      1.160634  
     571A      1.166675   572A      1.175572   573A      1.176382  
     574A      1.181342   575A      1.188850   576A      1.192490  
     577A      1.199145   578A      1.204033   579A      1.219058  
     580A      1.221144   581A      1.234174   582A      1.247589  
     583A      1.251782   584A      1.268027   585A      1.272335  
     586A      1.275671   587A      1.285306   588A      1.294267  
     589A      1.299946   590A      1.307297   591A      1.316258  
     592A      1.318790   593A      1.324079   594A      1.329651  
     595A      1.334622   596A      1.341007   597A      1.359469  
     598A      1.364361   599A      1.369387   600A      1.376236  
     601A      1.394777   602A      1.409722   603A      1.416179  
     604A      1.419541   605A      1.428845   606A      1.430403  
     607A      1.439454   608A      1.450789   609A      1.454941  
     610A      1.474897   611A      1.483477   612A      1.493089  
     613A      1.497958   614A      1.500669   615A      1.506543  
     616A      1.507681   617A      1.516733   618A      1.524059  
     619A      1.529443   620A      1.537190   621A      1.555933  
     622A      1.565460   623A      1.585394   624A      1.592432  
     625A      1.595650   626A      1.610972   627A      1.618364  
     628A      1.627699   629A      1.654540   630A      1.666999  
     631A      1.683250   632A      1.726311   633A      1.785627  
     634A      1.796791   635A      1.926934   636A      1.947955  
     637A      1.948356   638A      1.958829   639A      2.012797  
     640A      2.013160   641A      2.029693   642A      2.047686  
     643A      2.055394   644A      2.089704   645A      2.095235  

    Final Occupation by Irrep:
              A 
    DOCC [   210 ]

  @RKS Final Energy: -2422.51943316449615

   => Energetics <=

    Nuclear Repulsion Energy =           6343.0616452406802637
    One-Electron Energy =              -15902.7819238344000041
    Two-Electron Energy =                7423.0897876403787450
    DFT Exchange-Correlation Energy =    -285.8889422111562908
    Empirical Dispersion Energy =           0.0000000000000000
    VV10 Nonlocal Energy =                  0.0000000000000000
    Total Energy =                      -2422.5194331644961494

Computation Completed


Properties will be evaluated at   0.000000,   0.000000,   0.000000 [a0]

Properties computed using the B3LYP density matrix

  Nuclear Dipole Moment: [e a0]
     X:   -31.2124      Y:    -1.6578      Z:     1.4490

  Electronic Dipole Moment: [e a0]
     X:    29.8006      Y:     1.8763      Z:    -0.1080

  Dipole Moment: [e a0]
     X:    -1.4118      Y:     0.2185      Z:     1.3410     Total:     1.9593

  Dipole Moment: [D]
     X:    -3.5884      Y:     0.5553      Z:     3.4084     Total:     4.9802


*** tstop() called on Rubens-MacBook-Pro-2.local at Wed Jan 20 15:16:39 2021
Module time:
	user time   =    7020.69 seconds =     117.01 minutes
	system time =     175.60 seconds =       2.93 minutes
	total time  =       1297 seconds =      21.62 minutes
Total time:
	user time   =   90880.21 seconds =    1514.67 minutes
	system time =    1948.66 seconds =      32.48 minutes
	total time  =      16770 seconds =     279.50 minutes

    Psi4 stopped on: Wednesday, 20 January 2021 03:16PM
    Psi4 wall time for execution: 4:39:29.99

*** Psi4 exiting successfully. Buy a developer a beer!
