
    -----------------------------------------------------------------------
          Psi4: An Open-Source Ab Initio Electronic Structure Package
                               Psi4 1.3.2 release

                         Git: Rev {HEAD} ecbda83 


    R. M. Parrish, L. A. Burns, D. G. A. Smith, A. C. Simmonett,
    A. E. DePrince III, E. G. Hohenstein, U. Bozkaya, A. Yu. Sokolov,
    R. Di Remigio, R. M. Richard, J. F. Gonthier, A. M. James,
    H. R. McAlexander, A. Kumar, M. Saitow, X. Wang, B. P. Pritchard,
    P. Verma, H. F. Schaefer III, K. Patkowski, R. A. King, E. F. Valeev,
    F. A. Evangelista, J. M. Turney, T. D. Crawford, and C. D. Sherrill,
    J. Chem. Theory Comput. 13(7) pp 3185--3197 (2017).
    (doi: 10.1021/acs.jctc.7b00174)


                         Additional Contributions by
    P. Kraus, H. Kruse, M. H. Lechner, M. C. Schieber, R. A. Shaw,
    A. Alenaizan, R. Galvelis, Z. L. Glick, S. Lehtola, and J. P. Misiewicz

    -----------------------------------------------------------------------


    Psi4 started on: Thursday, 28 January 2021 05:23PM

    Process ID: 77532
    Host:       Rubens-MacBook-Pro-2.local
    PSIDATADIR: /opt/anaconda3/envs/p4env/share/psi4
    Memory:     500.0 MiB
    Threads:    8
    
  ==> Input File <==

--------------------------------------------------------------------------
memory 8gb
molecule {
    symmetry c1 # this is important; some perturbations will break symmetry
#    no_reorient
N         0.22865335412548   -2.41847723888949   -0.01094411566058
C         0.28297197222917   -2.35524545361232    1.31808412563266
C         0.20317278977531   -1.28482706750435   -0.68294675580940
C         0.09256630109172   -0.07777106661480   -2.60220049375416
C         0.36342044649744    2.18184540506590    1.32341358362285
N         0.24619262948058   -0.08440569754532    0.01297537281376
N         0.13372175859043   -1.26378347577838   -1.99922923353959
N         0.26868226127516    2.25040949236675   -0.00246008077993
N         0.32832303407930   -1.23799402906009    2.04037351299192
C         0.29226911220659   -3.61794359632660    2.04754248278931
N         0.38381884326671    1.06138537609837    2.04241330799309
C         0.32070471324918   -0.08700854521599    1.39891653364884
C         0.45302575221793    3.44232514890684    2.05100848883318
C         0.21200809423249    1.11952199706044   -0.67659655387840
N         0.12688355589371    1.10486818621062   -1.99126407150776
C         0.00240977166180   -0.06618173146014   -4.05763257327488
H         0.32683115098431   -4.80292753579700    0.27353972767484
C         0.29425779905552   -3.62119414164239    3.44370775182549
C         0.29341082227975   -6.02982566916202    3.43450394694620
C         0.31007624933837   -4.82748742549672    1.35160527531806
C         0.31143629003497   -7.27927924466031    4.24850328007023
H         0.36252282383415   -6.94753362946315    1.48070356026860
C         0.31180874284905   -6.02335098690324    2.03958716056086
C         0.29955786409428   -4.81822032088844    4.12604258028863
H         0.29383229959245   -2.67700323008642    3.96431239384239
H         0.30921842321662   -4.84515615626362    5.20527433739518
C         0.01239693293139   -1.26173233505347   -4.77811196346894
C        -0.07248188250232   -1.23308343427019   -6.15360203604132
H        -0.31428334439861    2.12404243134973   -6.60956493292248
C        -0.10852377820504    1.14970689583217   -4.73397044589514
H         0.08487246670732   -2.19229122558799   -4.23824429291336
H        -0.13285074799435    2.06068284333980   -4.15735141990869
C        -0.19067024340695    1.17296943712603   -6.11040625952817
C        -0.15942277317943   -0.01886799517196   -6.83495096635354
C        -0.26278326506273   -0.06985967505325   -8.32217201016887
H        -0.07426766654952   -2.14518664645380   -6.73123381910501
C         0.72577225767647    7.16588602026308    4.12701823336592
H         0.44348749415886    6.79299202696661    1.55114851659600
C         0.48093593789612    5.84222705612847    2.06123908234087
H         0.87459187264478    4.59794992833940    5.19701997967728
H         0.27457593826268    4.64102318922750    0.29303755290933
C         0.62464460686582    5.84141481649887    3.44881027710120
C         0.62091946907962    3.43657348974079    3.43644520027289
C         0.70719280244579    4.62630259126728    4.12921788433012
H         0.68616209624752    2.48770323599197    3.94483188857891
C         0.39056677397325    4.65653490523201    1.36488436728830
O         0.79447023439818   -7.33924651622485    5.35779860832909
N        -0.28600186410313   -8.35518100758828    3.63727369317838
C        -0.45821341886540  -11.87777956682277    5.40139499735597
N         0.24441708729709    1.04033544469155   -8.95302764330552
O        -0.73966404824117   -1.00794267448294   -8.92201130829647
C        -1.17681834002317   10.47307116359428   12.59153080660678
C         0.22531015331500    1.20513483501842  -10.28130997070021
H         0.71877446462194   11.31270733996550    7.19687521820103
C         0.17130967379364    1.31767948942752  -11.48201647037357
C         0.34276021145701   10.40935087198630    7.66314273805589
C        -2.54622671596318  -16.08721864836684    3.27496377372034
C        -0.36942774982912   -9.56256625435506    4.20957354393413
C         0.12294895657113    1.48554802610721  -12.86969142093103
C        -2.02445482148993  -15.02157302385581    3.80812932740052
C         0.51793407026916    2.58659288200812  -13.47958576845858
C        -0.42721764284767   10.43587839597910   10.12860453102051
C        -0.40318812301220  -10.62777674064884    4.77667645780910
H        -0.26504456776569    0.65089167105763  -13.44212154715441
C         0.88804451963837    3.64250017432511  -14.06745752464952
H        -0.48770918988781   10.26473389446759   13.39543007045326
C         1.25187558710836    4.70747396625128  -14.66443672717986
H         0.93482714112430    6.60496804663010  -15.45687901747520
C        -1.51206309898113  -13.97729403428435    4.32758929507237
H        -3.58734425283364  -16.33680519084664    3.40959509048170
C         1.62443329400597    5.79571295768701  -15.27195104300774
C        -0.99885442757571  -12.94624095096700    4.84823560527097
H        -1.95886772840866  -16.76700321626405    2.67728267772666
O         1.16412876373209    8.15638026258534    3.58478439881313
N         0.26048983873790    7.16697880469390    5.41979614018338
H        -0.02058883455742  -11.93699958389894    6.39155322688491
C         0.26941229348640    8.25470483512531    6.20003578743367
C        -0.05277983106460   10.42248657359048    8.92151135569109
C         0.31196004136403    9.26396266992886    6.86115825514186
H        -2.19484990449436   10.69550967123509   12.87189014230603
C        -0.79859586401190   10.45646818199056   11.34702087075818
H         2.63741666620708    5.93446868452176  -15.61709872258882
H        -0.15905049982251    6.33103497667136    5.80346346567967
H         0.69728927568591    1.76257886060919   -8.40960114613905
H        -0.73685315178029   -8.23885219058750    2.73999985228453

}

pert = 0.001
lambdas = [pert, -pert, 2.0*pert, -2.0*pert]

set {
    basis     sto-3g
    d_convergence   6
    reference rhf
    scf_type direct
}
method = 'B3LYP'
energy(method)
--------------------------------------------------------------------------

  Memory set to   7.451 GiB by Python driver.

*** tstart() called on Rubens-MacBook-Pro-2.local
*** at Thu Jan 28 17:23:36 2021

   => Loading Basis Set <=

    Name: STO-3G
    Role: ORBITAL
    Keyword: BASIS
    atoms 1, 6-9, 11, 15, 48, 50, 75                                                                                            entry N          line    71 file /opt/anaconda3/envs/p4env/share/psi4/basis/sto-3g.gbs 
    atoms 2-5, 10, 12-14, 16, 18-21, 23-24, 27-28, 30, 33-35, 37, 39, 42-44, 46, 49, 52-53, 55-63, 65, 67, 69, 71-72, 77-79, 81 entry C          line    61 file /opt/anaconda3/envs/p4env/share/psi4/basis/sto-3g.gbs 
    atoms 17, 22, 25-26, 29, 31-32, 36, 38, 40-41, 45, 54, 64, 66, 68, 70, 73, 76, 80, 82-85                                    entry H          line    19 file /opt/anaconda3/envs/p4env/share/psi4/basis/sto-3g.gbs 
    atoms 47, 51, 74                                                                                                            entry O          line    81 file /opt/anaconda3/envs/p4env/share/psi4/basis/sto-3g.gbs 


         ---------------------------------------------------------
                                   SCF
               by Justin Turney, Rob Parrish, Andy Simmonett
                          and Daniel G. A. Smith
                              RKS Reference
                        8 Threads,   7629 MiB Core
         ---------------------------------------------------------

  ==> Geometry <==

    Molecular point group: c1
    Full point group: C1

    Geometry (in Angstrom), charge = 0, multiplicity = 1:

       Center              X                  Y                   Z               Mass       
    ------------   -----------------  -----------------  -----------------  -----------------
         N            0.144239390877    -2.375144276013    -0.057267793290    14.003074004430
         C            0.198558008981    -2.311912490736     1.271760448003    12.000000000000
         C            0.118758826527    -1.241494104628    -0.729270433439    12.000000000000
         C            0.008152337844    -0.034438103738    -2.648524171384    12.000000000000
         C            0.279006483249     2.225178367943     1.277089905993    12.000000000000
         N            0.161778666232    -0.041072734669    -0.033348304816    14.003074004430
         N            0.049307795342    -1.220450512902    -2.045552911169    14.003074004430
         N            0.184268298027     2.293742455243    -0.048783758409    14.003074004430
         N            0.243909070831    -1.194661066183     1.994049835362    14.003074004430
         C            0.207855148958    -3.574610633450     2.001218805160    12.000000000000
         N            0.299404880019     1.104718338975     1.996089630364    14.003074004430
         C            0.236290750001    -0.043675582339     1.352592856019    12.000000000000
         C            0.368611788970     3.485658111784     2.004684811204    12.000000000000
         C            0.127594130984     1.162854959937    -0.722920231508    12.000000000000
         N            0.042469592646     1.148201149087    -2.037587749137    14.003074004430
         C           -0.082004191586    -0.022848768583    -4.103956250904    12.000000000000
         H            0.242417187736    -4.759594572920     0.227216050045     1.007825032230
         C            0.209843835807    -3.577861178766     3.397384074196    12.000000000000
         C            0.208996859032    -5.986492706285     3.388180269317    12.000000000000
         C            0.225662286090    -4.784154462620     1.305281597689    12.000000000000
         C            0.227022326787    -7.235946281784     4.202179602441    12.000000000000
         H            0.278108860586    -6.904200666586     1.434379882639     1.007825032230
         C            0.227394779601    -5.980018024027     1.993263482931    12.000000000000
         C            0.215143900846    -4.774887358012     4.079718902659    12.000000000000
         H            0.209418336344    -2.633670267210     3.917988716213     1.007825032230
         H            0.224804459969    -4.801823193387     5.158950659766     1.007825032230
         C           -0.072017030317    -1.218399372177    -4.824435641098    12.000000000000
         C           -0.156895845750    -1.189750471394    -6.199925713671    12.000000000000
         H           -0.398697307647     2.167375394226    -6.655888610552     1.007825032230
         C           -0.192937741453     1.193039858709    -4.780294123525    12.000000000000
         H            0.000458503459    -2.148958262711    -4.284567970543     1.007825032230
         H           -0.217264711242     2.104015806216    -4.203675097538     1.007825032230
         C           -0.275084206655     1.216302400003    -6.156729937158    12.000000000000
         C           -0.243836736428     0.024464967705    -6.881274643983    12.000000000000
         C           -0.347197228311    -0.026526712177    -8.368495687798    12.000000000000
         H           -0.158681629798    -2.101853683577    -6.777557496734     1.007825032230
         C            0.641358294428     7.209218983140     4.080694555736    12.000000000000
         H            0.359073530911     6.836324989843     1.504824838967     1.007825032230
         C            0.396521974648     5.885560019005     2.014915404711    12.000000000000
         H            0.790177909397     4.641282891216     5.150696302048     1.007825032230
         H            0.190161975015     4.684356152104     0.246713875280     1.007825032230
         C            0.540230643618     5.884747779376     3.402486599472    12.000000000000
         C            0.536505505832     3.479906452617     3.390121522643    12.000000000000
         C            0.622778839198     4.669635554144     4.082894206701    12.000000000000
         H            0.601748132999     2.531036198869     3.898508210949     1.007825032230
         C            0.306152810725     4.699867868109     1.318560689659    12.000000000000
         O            0.710056271150    -7.295913553348     5.311474930700    15.994914619570
         N           -0.370415827351    -8.311848044712     3.590950015549    14.003074004430
         C           -0.542627382114   -11.834446603946     5.355071319726    12.000000000000
         N            0.160003124049     1.083668407568    -8.999351320935    14.003074004430
         O           -0.824078011489    -0.964609711606    -8.968334985926    15.994914619570
         C           -1.261232303271    10.516404126471    12.545207128977    12.000000000000
         C            0.140896190067     1.248467797895   -10.327633648330    12.000000000000
         H            0.634360501374    11.356040302842     7.150551540572     1.007825032230
         C            0.086895710546     1.361012452304   -11.528340148003    12.000000000000
         C            0.258346248209    10.452683834863     7.616819060426    12.000000000000
         C           -2.630640679211   -16.043885685490     3.228640096091    12.000000000000
         C           -0.453841713077    -9.519233291478     4.163249866305    12.000000000000
         C            0.038534993323     1.528880988984   -12.916015098561    12.000000000000
         C           -2.108868784738   -14.978240060979     3.761805649771    12.000000000000
         C            0.433520107021     2.629925844885   -13.525909446088    12.000000000000
         C           -0.511631606096    10.479211358856    10.082280853391    12.000000000000
         C           -0.487602086260   -10.584443777772     4.730352780180    12.000000000000
         H           -0.349458531014     0.694224633934   -13.488445224784     1.007825032230
         C            0.803630556390     3.685833137202   -14.113781202279    12.000000000000
         H           -0.572123153136    10.308066857344    13.349106392824     1.007825032230
         C            1.167461623860     4.750806929128   -14.710760404809    12.000000000000
         H            0.850413177876     6.648301009507   -15.503202695105     1.007825032230
         C           -1.596477062229   -13.933961071408     4.281265617443    12.000000000000
         H           -3.671758216082   -16.293472227970     3.363271412852     1.007825032230
         C            1.540019330758     5.839045920564   -15.318274720637    12.000000000000
         C           -1.083268390824   -12.902907988090     4.801911927641    12.000000000000
         H           -2.043281691657   -16.723670253387     2.630959000097     1.007825032230
         O            1.079714800484     8.199713225462     3.538460721184    15.994914619570
         N            0.176075875490     7.210311767571     5.373472462554    14.003074004430
         H           -0.105002797806   -11.893666621022     6.345229549255     1.007825032230
         C            0.184998330238     8.298037798002     6.153712109804    12.000000000000
         C           -0.137193794313    10.465819536467     8.875187678062    12.000000000000
         C            0.227546078116     9.307295632806     6.814834577512    12.000000000000
         H           -2.279263867742    10.738842634112    12.825566464677     1.007825032230
         C           -0.883009827260    10.499801144867    11.300697193129    12.000000000000
         H            2.553002702959     5.977801647398   -15.663422400218     1.007825032230
         H           -0.243464463071     6.374367939548     5.757139788050     1.007825032230
         H            0.612875312438     1.805911823486    -8.455924823769     1.007825032230
         H           -0.821267115028    -8.195519227711     2.693676174655     1.007825032230

  Running in c1 symmetry.

  Rotational constants: A =      0.00050  B =      0.00048  C =      0.00025 [cm^-1]
  Rotational constants: A =     15.00668  B =     14.52824  C =      7.43781 [MHz]
  Nuclear repulsion = 6211.439436616259627

  Charge       = 0
  Multiplicity = 1
  Electrons    = 406
  Nalpha       = 203
  Nbeta        = 203

  ==> Algorithm <==

  SCF Algorithm Type is DIRECT.
  DIIS enabled.
  MOM disabled.
  Fractional occupation disabled.
  Guess Type is SAD.
  Energy threshold   = 1.00e-06
  Density threshold  = 1.00e-06
  Integral threshold = 0.00e+00

  ==> Primary Basis <==

  Basis Set: STO-3G
    Blend: STO-3G
    Number of shells: 207
    Number of basis function: 329
    Number of Cartesian functions: 329
    Spherical Harmonics?: true
    Max angular momentum: 1

  ==> DFT Potential <==

   => Composite Functional: B3LYP <= 

    B3LYP Hyb-GGA Exchange-Correlation Functional

    P. J. Stephens, F. J. Devlin, C. F. Chabalowski, and M. J. Frisch, J. Phys. Chem. 98, 11623 (1994)

    Deriv               =              1
    GGA                 =           TRUE
    Meta                =          FALSE

    Exchange Hybrid     =           TRUE
    MP2 Hybrid          =          FALSE

   => Exchange Functionals <=

    0.0800   Slater exchange
    0.7200         Becke 88

   => Exact (HF) Exchange <=

    0.2000               HF 

   => Correlation Functionals <=

    0.1900   Vosko, Wilk & Nusair (VWN5_RPA)
    0.8100   Lee, Yang & Parr

   => Molecular Quadrature <=

    Radial Scheme          =       TREUTLER
    Pruning Scheme         =           FLAT
    Nuclear Scheme         =       TREUTLER

    BS radius alpha        =              1
    Pruning alpha          =              1
    Radial Points          =             75
    Spherical Points       =            302
    Total Points           =        1868798
    Total Blocks           =          13895
    Max Points             =            256
    Max Functions          =            130

   => Loading Basis Set <=

    Name: (STO-3G AUX)
    Role: JKFIT
    Keyword: DF_BASIS_SCF
    atoms 1, 6-9, 11, 15, 48, 50, 75                                                                                            entry N          line   263 file /opt/anaconda3/envs/p4env/share/psi4/basis/def2-svp-jkfit.gbs 
    atoms 2-5, 10, 12-14, 16, 18-21, 23-24, 27-28, 30, 33-35, 37, 39, 42-44, 46, 49, 52-53, 55-63, 65, 67, 69, 71-72, 77-79, 81 entry C          line   203 file /opt/anaconda3/envs/p4env/share/psi4/basis/def2-svp-jkfit.gbs 
    atoms 17, 22, 25-26, 29, 31-32, 36, 38, 40-41, 45, 54, 64, 66, 68, 70, 73, 76, 80, 82-85                                    entry H          line    23 file /opt/anaconda3/envs/p4env/share/psi4/basis/def2-svp-jkfit.gbs 
    atoms 47, 51, 74                                                                                                            entry O          line   323 file /opt/anaconda3/envs/p4env/share/psi4/basis/def2-svp-jkfit.gbs 

  Starting with a DF guess...

  ==> Pre-Iterations <==

   -------------------------------------------------------
    Irrep   Nso     Nmo     Nalpha   Nbeta   Ndocc  Nsocc
   -------------------------------------------------------
     A        329     329       0       0       0       0
   -------------------------------------------------------
    Total     329     329     203     203     203       0
   -------------------------------------------------------

  ==> Integral Setup <==

  DFHelper Memory: AOs need 1.450 GiB; user supplied 2.069 GiB. Using in-core AOs.

  ==> MemDFJK: Density-Fitted J/K Matrices <==

    J tasked:                   Yes
    K tasked:                   Yes
    wK tasked:                   No
    OpenMP threads:               8
    Memory [MiB]:              2118
    Algorithm:                 Core
    Schwarz Cutoff:           1E-12
    Mask sparsity (%):      69.6132
    Fitting Condition:        1E-10

   => Auxiliary Basis Set <=

  Basis Set: (STO-3G AUX)
    Blend: DEF2-SVP-JKFIT
    Number of shells: 1669
    Number of basis function: 5033
    Number of Cartesian functions: 5961
    Spherical Harmonics?: true
    Max angular momentum: 4

  Cached 100.0% of DFT collocation blocks in 3.519 [GiB].

  Minimum eigenvalue in the overlap matrix is 1.3482233580E-01.
  Using Symmetric Orthogonalization.

  SCF Guess: Superposition of Atomic Densities via on-the-fly atomic UHF.

  ==> Iterations <==

                           Total Energy        Delta E     RMS |[F,P]|

   @DF-RKS iter SAD: -2563.80247930542191   -2.56380e+03   0.00000e+00 
   @DF-RKS iter   1: -2582.04711579990089   -1.82446e+01   3.44752e-03 DIIS
   @DF-RKS iter   2: -2577.34513773511571    4.70198e+00   8.92835e-03 DIIS
   @DF-RKS iter   3: -2582.65204337528075   -5.30691e+00   1.49141e-03 DIIS
   @DF-RKS iter   4: -2582.84873771020102   -1.96694e-01   3.62742e-04 DIIS
   @DF-RKS iter   5: -2582.85427675315486   -5.53904e-03   2.17848e-04 DIIS
   @DF-RKS iter   6: -2582.85691194630954   -2.63519e-03   9.98399e-05 DIIS
   @DF-RKS iter   7: -2582.85766529915463   -7.53353e-04   1.81513e-05 DIIS
   @DF-RKS iter   8: -2582.85767897589130   -1.36767e-05   1.13511e-05 DIIS
   @DF-RKS iter   9: -2582.85768720245824   -8.22657e-06   3.71039e-06 DIIS
   @DF-RKS iter  10: -2582.85768807792238   -8.75464e-07   1.39975e-06 DIIS
   @DF-RKS iter  11: -2582.85768821928059   -1.41358e-07   4.15938e-07 DIIS

  DF guess converged.

  ==> DirectJK: Integral-Direct J/K Matrices <==

    J tasked:                  Yes
    K tasked:                  Yes
    wK tasked:                  No
    Integrals threads:           8
    Schwarz Cutoff:          1E-12

   @RKS iter  12: -2582.84113550969187   -2.58284e+03   1.75394e-06 DIIS
   @RKS iter  13: -2582.84113555881413   -4.91223e-08   2.98822e-07 DIIS
  Energy and wave function converged.


  ==> Post-Iterations <==

    Orbital Energies [Eh]
    ---------------------

    Doubly Occupied:                                                      

       1A    -18.894193     2A    -18.894168     3A    -18.894110  
       4A    -14.325969     5A    -14.241692     6A    -14.241668  
       7A    -14.241527     8A    -14.163593     9A    -14.163448  
      10A    -14.163396    11A    -14.163308    12A    -14.163206  
      13A    -14.163088    14A    -10.193439    15A    -10.193345  
      16A    -10.193115    17A    -10.140754    18A    -10.140733  
      19A    -10.140710    20A    -10.139186    21A    -10.139183  
      22A    -10.139131    23A    -10.051856    24A    -10.051854  
      25A    -10.051849    26A    -10.049097    27A    -10.049079  
      28A    -10.048992    29A    -10.048710    30A    -10.048706  
      31A    -10.048683    32A    -10.039330    33A    -10.039279  
      34A    -10.039145    35A    -10.037983    36A    -10.037917  
      37A    -10.037647    38A    -10.037207    39A    -10.036991  
      40A    -10.036853    41A    -10.035422    42A    -10.035328  
      43A    -10.035211    44A    -10.031781    45A    -10.031756  
      46A    -10.031744    47A    -10.017770    48A    -10.017734  
      49A    -10.017609    50A    -10.016421    51A    -10.016380  
      52A    -10.016292    53A    -10.015845    54A    -10.015832  
      55A    -10.015745    56A    -10.011702    57A    -10.011690  
      58A    -10.011597    59A     -9.997699    60A     -9.997672  
      61A     -9.997561    62A     -1.093518    63A     -1.025410  
      64A     -1.025369    65A     -1.025273    66A     -1.000574  
      67A     -1.000533    68A     -0.927833    69A     -0.920862  
      70A     -0.920845    71A     -0.920745    72A     -0.913058  
      73A     -0.912978    74A     -0.849291    75A     -0.847773  
      76A     -0.847760    77A     -0.847270    78A     -0.780179  
      79A     -0.780153    80A     -0.779988    81A     -0.767317  
      82A     -0.766203    83A     -0.766139    84A     -0.750162  
      85A     -0.750103    86A     -0.750031    87A     -0.737087  
      88A     -0.737027    89A     -0.736177    90A     -0.710423  
      91A     -0.709274    92A     -0.709246    93A     -0.693124  
      94A     -0.692231    95A     -0.692190    96A     -0.667855  
      97A     -0.667763    98A     -0.666784    99A     -0.631456  
     100A     -0.631325   101A     -0.621395   102A     -0.605073  
     103A     -0.604996   104A     -0.600249   105A     -0.589202  
     106A     -0.589175   107A     -0.581557   108A     -0.577687  
     109A     -0.577628   110A     -0.570229   111A     -0.567717  
     112A     -0.567684   113A     -0.549719   114A     -0.549636  
     115A     -0.549548   116A     -0.543755   117A     -0.543698  
     118A     -0.513732   119A     -0.506796   120A     -0.499199  
     121A     -0.499113   122A     -0.497484   123A     -0.477904  
     124A     -0.472455   125A     -0.472360   126A     -0.465997  
     127A     -0.451249   128A     -0.451188   129A     -0.445127  
     130A     -0.445048   131A     -0.444788   132A     -0.437491  
     133A     -0.437478   134A     -0.437405   135A     -0.432454  
     136A     -0.432313   137A     -0.429142   138A     -0.420710  
     139A     -0.418263   140A     -0.418248   141A     -0.418187  
     142A     -0.416113   143A     -0.415838   144A     -0.411143  
     145A     -0.410751   146A     -0.409904   147A     -0.409506  
     148A     -0.409281   149A     -0.394601   150A     -0.394038  
     151A     -0.393890   152A     -0.367506   153A     -0.363209  
     154A     -0.357052   155A     -0.356477   156A     -0.351697  
     157A     -0.351303   158A     -0.334506   159A     -0.333788  
     160A     -0.333659   161A     -0.328482   162A     -0.323917  
     163A     -0.323760   164A     -0.320484   165A     -0.319125  
     166A     -0.319062   167A     -0.314476   168A     -0.306044  
     169A     -0.305996   170A     -0.301725   171A     -0.301714  
     172A     -0.301612   173A     -0.280664   174A     -0.279300  
     175A     -0.279213   176A     -0.261595   177A     -0.258307  
     178A     -0.258299   179A     -0.234884   180A     -0.234455  
     181A     -0.234130   182A     -0.228972   183A     -0.228662  
     184A     -0.228617   185A     -0.223301   186A     -0.219667  
     187A     -0.219225   188A     -0.215078   189A     -0.211295  
     190A     -0.211267   191A     -0.190682   192A     -0.190391  
     193A     -0.190387   194A     -0.183381   195A     -0.183371  
     196A     -0.183280   197A     -0.171835   198A     -0.171622  
     199A     -0.171576   200A     -0.170404   201A     -0.138181  
     202A     -0.138138   203A     -0.138100  

    Virtual:                                                              

     204A     -0.055344   205A     -0.011083   206A     -0.011068  
     207A      0.021483   208A      0.022611   209A      0.022684  
     210A      0.040174   211A      0.040181   212A      0.040337  
     213A      0.049921   214A      0.050039   215A      0.053186  
     216A      0.066407   217A      0.066559   218A      0.066587  
     219A      0.112219   220A      0.112288   221A      0.129890  
     222A      0.144455   223A      0.144910   224A      0.145448  
     225A      0.164318   226A      0.164411   227A      0.208644  
     228A      0.214765   229A      0.214811   230A      0.221841  
     231A      0.253501   232A      0.253643   233A      0.260022  
     234A      0.260858   235A      0.260966   236A      0.262524  
     237A      0.265201   238A      0.287940   239A      0.288121  
     240A      0.288227   241A      0.295772   242A      0.295918  
     243A      0.296134   244A      0.325853   245A      0.326164  
     246A      0.326444   247A      0.331940   248A      0.332242  
     249A      0.344879   250A      0.345204   251A      0.348416  
     252A      0.353274   253A      0.353393   254A      0.358034  
     255A      0.371250   256A      0.373400   257A      0.373648  
     258A      0.383861   259A      0.384066   260A      0.384895  
     261A      0.402467   262A      0.402790   263A      0.427293  
     264A      0.432042   265A      0.432047   266A      0.434493  
     267A      0.438596   268A      0.440380   269A      0.440507  
     270A      0.442714   271A      0.447405   272A      0.447505  
     273A      0.452559   274A      0.452654   275A      0.469333  
     276A      0.469454   277A      0.474951   278A      0.480317  
     279A      0.483104   280A      0.483196   281A      0.504496  
     282A      0.507506   283A      0.507565   284A      0.517747  
     285A      0.544411   286A      0.544464   287A      0.544604  
     288A      0.545648   289A      0.545923   290A      0.548811  
     291A      0.553305   292A      0.554291   293A      0.554555  
     294A      0.570740   295A      0.570897   296A      0.571660  
     297A      0.575354   298A      0.575451   299A      0.575657  
     300A      0.583503   301A      0.594152   302A      0.594274  
     303A      0.603651   304A      0.605176   305A      0.605648  
     306A      0.627696   307A      0.646217   308A      0.646425  
     309A      0.652612   310A      0.683956   311A      0.684179  
     312A      0.707807   313A      0.736959   314A      0.737192  
     315A      0.777595   316A      0.792607   317A      0.792700  
     318A      0.798949   319A      0.799147   320A      0.799283  
     321A      0.845702   322A      0.845747   323A      0.845922  
     324A      1.142480   325A      1.142486   326A      1.142921  
     327A      1.207252   328A      1.207378   329A      1.207450  

    Final Occupation by Irrep:
              A 
    DOCC [   203 ]

  @RKS Final Energy: -2582.84113555881413

   => Energetics <=

    Nuclear Repulsion Energy =           6211.4394366162596270
    One-Electron Energy =              -15874.8068883974046912
    Two-Electron Energy =                7374.9439152720833590
    DFT Exchange-Correlation Energy =    -294.4175990497521980
    Empirical Dispersion Energy =           0.0000000000000000
    VV10 Nonlocal Energy =                  0.0000000000000000
    Total Energy =                      -2582.8411355588141305

Computation Completed


Properties will be evaluated at   0.000000,   0.000000,   0.000000 [a0]

Properties computed using the SCF density matrix

  Nuclear Dipole Moment: [e a0]
     X:    -3.1046      Y:     0.3864      Z:     0.5834

  Electronic Dipole Moment: [e a0]
     X:     2.7798      Y:    -0.3839      Z:    -0.5598

  Dipole Moment: [e a0]
     X:    -0.3248      Y:     0.0025      Z:     0.0236     Total:     0.3257

  Dipole Moment: [D]
     X:    -0.8255      Y:     0.0064      Z:     0.0600     Total:     0.8277


*** tstop() called on Rubens-MacBook-Pro-2.local at Thu Jan 28 17:27:00 2021
Module time:
	user time   =     940.14 seconds =      15.67 minutes
	system time =      53.75 seconds =       0.90 minutes
	total time  =        204 seconds =       3.40 minutes
Total time:
	user time   =     940.14 seconds =      15.67 minutes
	system time =      53.75 seconds =       0.90 minutes
	total time  =        204 seconds =       3.40 minutes

    Psi4 stopped on: Thursday, 28 January 2021 05:27PM
    Psi4 wall time for execution: 0:03:24.63

*** Psi4 exiting successfully. Buy a developer a beer!
