
    -----------------------------------------------------------------------
          Psi4: An Open-Source Ab Initio Electronic Structure Package
                               Psi4 1.3.2 release

                         Git: Rev {HEAD} ecbda83 


    R. M. Parrish, L. A. Burns, D. G. A. Smith, A. C. Simmonett,
    A. E. DePrince III, E. G. Hohenstein, U. Bozkaya, A. Yu. Sokolov,
    R. Di Remigio, R. M. Richard, J. F. Gonthier, A. M. James,
    H. R. McAlexander, A. Kumar, M. Saitow, X. Wang, B. P. Pritchard,
    P. Verma, H. F. Schaefer III, K. Patkowski, R. A. King, E. F. Valeev,
    F. A. Evangelista, J. M. Turney, T. D. Crawford, and C. D. Sherrill,
    J. Chem. Theory Comput. 13(7) pp 3185--3197 (2017).
    (doi: 10.1021/acs.jctc.7b00174)


                         Additional Contributions by
    P. Kraus, H. Kruse, M. H. Lechner, M. C. Schieber, R. A. Shaw,
    A. Alenaizan, R. Galvelis, Z. L. Glick, S. Lehtola, and J. P. Misiewicz

    -----------------------------------------------------------------------


    Psi4 started on: Thursday, 21 January 2021 11:10AM

    Process ID: 51310
    Host:       Rubens-MacBook-Pro-2.local
    PSIDATADIR: /opt/anaconda3/envs/p4env/share/psi4
    Memory:     500.0 MiB
    Threads:    1
    
  ==> Input File <==

--------------------------------------------------------------------------
memory 8gb
molecule {
    symmetry c1 # this is important; some perturbations will break symmetry
#    no_reorient
N
C      1      1.33384
N      1      2.35778    2     87.70244
C      1      2.40890    2    148.28227    3     -1.79190
H      2      6.18372    3     69.29385    4     -3.48402
C      3      1.33290    4    148.50029    5     29.67005
C      4      4.81502    5    111.23272    6     14.76193
H      5      5.37553    6     44.82633    7     -7.81904
C      6      2.25453    7     71.76240    8     10.97960
N      7      2.41003    8    124.43127    9     -8.53201
C      8      3.39999    9    124.73092   10      9.32910
C      9      3.60763   10     41.94889   11   -178.63073
H     10      7.23432   11    158.79418   12    -18.20672
C     11      7.32470   12     48.64617   13    150.37594
C     12      8.79514   13    110.95744   14      6.04778
C     13      8.12121   14      9.77833   15    -21.55232
C     14      6.82194   15     21.90348   16    156.60796
C     15      2.53019   16     47.68317   17    -71.39478
C     16      2.42525   17     12.32070   18     30.80692
C     17      5.99860   18     23.70856   19     -5.72564
C     18      4.25421   19     59.60171   20    167.38383
H     19      2.16023   20     25.84062   21     19.81602
C     20      8.73053   21    157.40906   22    127.17188
C     21     12.32352   22     27.52625   23     -6.27508
H     22      4.96143   23     69.85669   24      4.06643
C     23      2.78118   24     59.77139   25    -15.72667
H     24      1.08929   25     83.00716   26   -176.77749
H     25      6.39818   26      8.43945   27   -174.36165
C     26      1.40109   27     99.11925   28   -178.13301
H     27      5.37340   28    130.63817   29   -165.95767
C     28      4.66972   29      1.92780   30      2.74427
C     29      1.39727   30     70.97719   31     -3.90455
H     30      7.37140   31      6.35632   32   -153.87495
C     31     10.19831   32     15.25485   33     16.52922
C     32      7.35908   33     56.44927   34     -0.58101
H     33      5.38727   34     15.10756   35     -1.85264
C     34      2.78811   35     30.20490   36    178.33008
C     35      2.78206   36    178.21912   37    -28.86764
H     36      4.96045   37     34.07103   38     -0.40164
C     37      2.53298   38     60.04948   39     -1.83056
N     38      3.65260   39     98.04967   40     -9.72669
O     39      2.54376   40     27.06444   41   -128.02527
C     40      3.58043   41     33.92124   42     -2.29761
C     41     18.78972   42    111.85926   43    168.11396
C     42      2.91305   43     14.24268   44    -10.65154
H     43      6.46353   44    102.71628   45    148.98625
H     44     12.57256   45     38.64585   46    155.82313
H     45     13.99533   46    119.77982   47     -8.59300
C     46      5.75123   47     42.63199   48    160.33155
H     47     13.88686   48    172.62792   49    164.49339
C     48     16.86155   49      4.61935   50   -155.82690
C     49     22.77790   50     72.56469   51     75.96514
C     50     23.75743   51      1.20822   52     78.25477
C     51      2.40130   52    103.60923   53     -0.13429
C     52     24.24901   53     58.62696   54    154.65786
O     53     19.90089   54    140.56609   55    -23.39286
C     54     24.05094   55      2.70814   56     31.32721
O     55     20.85467   56     12.77354   57    -96.04500
N     56     12.34198   57    162.80211   58    -26.61274
H     57     17.83245   58     35.97647   59   -154.90480
C     58      2.91770   59     26.86997   60   -162.06053
N     59     13.31849   60     61.40971   61   -165.21505
C     60     15.32924   61      1.95804   62   -165.31724
C     61     18.90768   62      5.37415   63     -7.78251
C     62      3.85026   63    142.14918   64    -13.80796
C     63      1.29814   64    145.74163   65    -44.65186
H     64      5.14413   65     49.11655   66     36.72632
C     65     19.99968   66      4.02368   67    121.66154
H     66      1.08350   67    133.61472   68   -158.59339
C     67     20.51646   68     73.19718   69     60.78030
H     68     19.94547   69    103.40911   70    -65.67719
C     69     24.94108   70     67.22677   71     -7.27166
H     70     26.47186   71     13.84538   72      8.09621
H     71     25.90668   72     88.03635   73   -107.02913
C     72     26.02548   73    112.98694   74     63.85576
H     73     26.51590   74     60.33983   75      0.39500
H     74     25.69395   75      2.40017   76   -143.03098
H     75     24.38708   76    141.99143   77    118.15181

}

pert = 0.001
lambdas = [pert, -pert, 2.0*pert, -2.0*pert]

set {
    basis     sto-3g
    d_convergence   6
    reference rhf
    scf_type direct
}
method = 'B3LYP'
energy(method)
--------------------------------------------------------------------------

  Memory set to   7.451 GiB by Python driver.

*** tstart() called on Rubens-MacBook-Pro-2.local
*** at Thu Jan 21 11:10:00 2021

   => Loading Basis Set <=

    Name: STO-3G
    Role: ORBITAL
    Keyword: BASIS
    atoms 1, 3, 10, 41, 59, 62                                                                                                entry N          line    71 file /opt/anaconda3/envs/p4env/share/psi4/basis/sto-3g.gbs 
    atoms 2, 4, 6-7, 9, 11-12, 14-21, 23-24, 26, 29, 31-32, 34-35, 37-38, 40, 43-45, 49, 51-55, 57, 61, 63-66, 68, 70, 72, 75 entry C          line    61 file /opt/anaconda3/envs/p4env/share/psi4/basis/sto-3g.gbs 
    atoms 5, 8, 13, 22, 25, 27-28, 30, 33, 36, 39, 46-48, 50, 60, 67, 69, 71, 73-74, 76-78                                    entry H          line    19 file /opt/anaconda3/envs/p4env/share/psi4/basis/sto-3g.gbs 
    atoms 42, 56, 58                                                                                                          entry O          line    81 file /opt/anaconda3/envs/p4env/share/psi4/basis/sto-3g.gbs 


         ---------------------------------------------------------
                                   SCF
               by Justin Turney, Rob Parrish, Andy Simmonett
                          and Daniel G. A. Smith
                              RKS Reference
                        1 Threads,   7629 MiB Core
         ---------------------------------------------------------

  ==> Geometry <==

    Molecular point group: c1
    Full point group: C1

    Geometry (in Angstrom), charge = 0, multiplicity = 1:

       Center              X                  Y                   Z               Mass       
    ------------   -----------------  -----------------  -----------------  -----------------
         N            0.477112798028    -1.141902089699    -0.722756536543    14.003074004430
         C            0.477112798028    -1.141902089699     0.611083463457    12.000000000000
         N            0.477112798028     1.213982498651    -0.628234926440    14.003074004430
         C            0.437511819008     0.123921425195    -2.771883619376    12.000000000000
         H            0.030578793469    -1.891816888760    -5.510732297845     1.007825032230
         C            0.463364351365     1.109183965237     0.700467695522    12.000000000000
         C            0.505096625582    -2.452801486840     1.295099160144    12.000000000000
         H            0.897233517170    -3.618359631925    -0.494330945599     1.007825032230
         C            0.474222659652     0.060736593486    -1.295414497071    12.000000000000
         N            0.452897851337    -0.044452168674     1.368402983746    14.003074004430
         C            0.561871994531    -4.977148041329     2.604242711377    12.000000000000
         C            0.450905047321     2.364575588386     1.480693640490    12.000000000000
         H           -0.337550184185     7.099143222310     2.192795278384     1.007825032230
         C            0.227031095752    -1.028568460055    -3.555938369797    12.000000000000
         C            0.231550709906     0.392755914934    -7.087754204344    12.000000000000
         C            0.605778959773     1.342615459625    -3.457564896658    12.000000000000
         C           -1.150769750324    -0.645363167610   -10.226296973050    12.000000000000
         C            0.164560419590    -0.967593609636    -4.955426155449    12.000000000000
         C            0.308595847107     0.260119387416    -5.607383961997    12.000000000000
         C            0.549285794416     1.411842325714    -4.854061063949    12.000000000000
         C           -0.903049074227    -0.568473368772    -9.054110789102    12.000000000000
         H            0.687084189636     2.371343087706    -5.350333938072     1.007825032230
         C            0.172466741162     3.565226984031     3.598340724615    12.000000000000
         C            0.187401433033     2.372870092576     2.863462853381    12.000000000000
         H            0.108441221822    -1.998952018498    -3.074047346848     1.007825032230
         C            0.710680947287     3.608603315953     0.870080078241    12.000000000000
         H           -0.011494198901     1.439505983275     3.388652981969     1.007825032230
         H            0.942565613567     3.653102812115    -0.193904988692     1.007825032230
         C            0.701270745216     4.805527353732     1.598322815235    12.000000000000
         H            0.244857534468    -3.827675310878     4.420405163126     1.007825032230
         C            0.397370380874     6.028994607324     3.789081982678    12.000000000000
         C            0.415720975541     4.787944219918     2.965990763000    12.000000000000
         H           -0.030836411866     3.534410689369     4.667832996891     1.007825032230
         C            0.731601808689    -3.646143013094     0.581976085654    12.000000000000
         C            0.322885980083    -2.565309379011     2.688318978591    12.000000000000
         H            0.163659136841    -1.669670627115     3.288562470180     1.007825032230
         C            0.352689816889    -3.807333753450     3.339511329272    12.000000000000
         C            0.766227114224    -4.889286035578     1.224611705223    12.000000000000
         H            0.955435758640    -5.788916679810     0.640739602042     1.007825032230
         C            0.609480234822    -6.325135038171     3.235959157330    12.000000000000
         N           -0.168799745972    -6.504522627531     4.364392315828    14.003074004430
         O            1.290649686303    -7.208422276470     2.724810239365    15.994914619570
         C           -0.422247334502    -8.597825734028     5.803038082599    12.000000000000
         C           -2.445767179891    12.145674883170     4.166579790652    12.000000000000
         C           -0.304397930790    -7.611332091431     5.128837502670    12.000000000000
         H            0.903138996773    -9.407493074512    12.077192203396     1.007825032230
         H            0.777320237485     2.262116513179    -2.904222596668     1.007825032230
         H            0.938371610803     5.727968264590     1.080646340280     1.007825032230
         C           -0.544498047507    -9.674779219820     6.517556278495    12.000000000000
         H            0.029353420711    -5.443714522148   -14.432691460987     1.007825032230
         C            0.000713479551    -9.697331421318     7.825481047768    12.000000000000
         C           -3.456332808616    12.776273587794     4.006744743613    12.000000000000
         C            0.467113309316    -9.726200542407     8.931472550830    12.000000000000
         C            0.938691122073    -9.757242662316    10.035198286541    12.000000000000
         C            0.062779430282    -3.564023751903   -13.560981856048    12.000000000000
         O            0.872470133904     1.266458193497    -7.652934660548    15.994914619570
         C           -0.409239883858    -2.673202847654   -12.909238442024    12.000000000000
         O            0.684734038355     5.973473545401     4.974567193773    15.994914619570
         N           -0.018896378170     7.184450662654     3.140920128014    14.003074004430
         H           -0.772926806482    -5.746675490227     4.652588648007     1.007825032230
         C           -0.103009724088     8.440889355285     3.631327722991    12.000000000000
         N           -0.634020761599    -0.478688847672    -7.734744942146    14.003074004430
         C           -0.178439473566     9.559581330188     4.060401231634    12.000000000000
         C           -0.875882366943    -1.779210663986   -12.257428882119    12.000000000000
         C           -1.422512057189    -0.716368941091   -11.495900578060    12.000000000000
         C           -0.251518489785    10.766831457409     4.531966759756    12.000000000000
         H           -1.195455646106    -1.100544586457    -7.168287625350     1.007825032230
         C           -1.440184863128    11.511907053599     4.329906003976    12.000000000000
         H            0.567269796079    11.195160813285     5.097733457103     1.007825032230
         C            1.453619792860    -9.792258421651    11.226321390809    12.000000000000
         H           -2.015279174559     0.048982954687   -11.982433226081     1.007825032230
         C            0.577919796461    -4.524564335549   -14.265830248707    12.000000000000
         H            1.568006583060    -4.422824901823   -14.695010966883     1.007825032230
         H            2.443383779004   -10.203355909753    11.387760206957     1.007825032230
         C           -4.548923241089    13.456524861873     3.837250179029    12.000000000000
         H           -4.599177929451    14.245899655338     3.096490133572     1.007825032230
         H           -5.427450764026    13.246708457918     4.436248763333     1.007825032230
         H           -1.007782414000   -10.564868100045     6.109401744891     1.007825032230

  Running in c1 symmetry.

  Rotational constants: A =      0.00064  B =      0.00063  C =      0.00032 [cm^-1]
  Rotational constants: A =     19.19963  B =     18.76685  C =      9.70499 [MHz]
  Nuclear repulsion = 5083.747745681324886

  Charge       = 0
  Multiplicity = 1
  Electrons    = 360
  Nalpha       = 180
  Nbeta        = 180

  ==> Algorithm <==

  SCF Algorithm Type is DIRECT.
  DIIS enabled.
  MOM disabled.
  Fractional occupation disabled.
  Guess Type is SAD.
  Energy threshold   = 1.00e-06
  Density threshold  = 1.00e-06
  Integral threshold = 0.00e+00

  ==> Primary Basis <==

  Basis Set: STO-3G
    Blend: STO-3G
    Number of shells: 186
    Number of basis function: 294
    Number of Cartesian functions: 294
    Spherical Harmonics?: true
    Max angular momentum: 1

  ==> DFT Potential <==

   => Composite Functional: B3LYP <= 

    B3LYP Hyb-GGA Exchange-Correlation Functional

    P. J. Stephens, F. J. Devlin, C. F. Chabalowski, and M. J. Frisch, J. Phys. Chem. 98, 11623 (1994)

    Deriv               =              1
    GGA                 =           TRUE
    Meta                =          FALSE

    Exchange Hybrid     =           TRUE
    MP2 Hybrid          =          FALSE

   => Exchange Functionals <=

    0.0800   Slater exchange
    0.7200         Becke 88

   => Exact (HF) Exchange <=

    0.2000               HF 

   => Correlation Functionals <=

    0.1900   Vosko, Wilk & Nusair (VWN5_RPA)
    0.8100   Lee, Yang & Parr

   => Molecular Quadrature <=

    Radial Scheme          =       TREUTLER
    Pruning Scheme         =           FLAT
    Nuclear Scheme         =       TREUTLER

    BS radius alpha        =              1
    Pruning alpha          =              1
    Radial Points          =             75
    Spherical Points       =            302
    Total Points           =        1716897
    Total Blocks           =          12550
    Max Points             =            256
    Max Functions          =            121

   => Loading Basis Set <=

    Name: (STO-3G AUX)
    Role: JKFIT
    Keyword: DF_BASIS_SCF
    atoms 1, 3, 10, 41, 59, 62                                                                                                entry N          line   263 file /opt/anaconda3/envs/p4env/share/psi4/basis/def2-svp-jkfit.gbs 
    atoms 2, 4, 6-7, 9, 11-12, 14-21, 23-24, 26, 29, 31-32, 34-35, 37-38, 40, 43-45, 49, 51-55, 57, 61, 63-66, 68, 70, 72, 75 entry C          line   203 file /opt/anaconda3/envs/p4env/share/psi4/basis/def2-svp-jkfit.gbs 
    atoms 5, 8, 13, 22, 25, 27-28, 30, 33, 36, 39, 46-48, 50, 60, 67, 69, 71, 73-74, 76-78                                    entry H          line    23 file /opt/anaconda3/envs/p4env/share/psi4/basis/def2-svp-jkfit.gbs 
    atoms 42, 56, 58                                                                                                          entry O          line   323 file /opt/anaconda3/envs/p4env/share/psi4/basis/def2-svp-jkfit.gbs 

  Starting with a DF guess...

  ==> Pre-Iterations <==

   -------------------------------------------------------
    Irrep   Nso     Nmo     Nalpha   Nbeta   Ndocc  Nsocc
   -------------------------------------------------------
     A        294     294       0       0       0       0
   -------------------------------------------------------
    Total     294     294     180     180     180       0
   -------------------------------------------------------

  ==> Integral Setup <==

  DFHelper Memory: AOs need 1.116 GiB; user supplied 2.453 GiB. Using in-core AOs.

  ==> MemDFJK: Density-Fitted J/K Matrices <==

    J tasked:                   Yes
    K tasked:                   Yes
    wK tasked:                   No
    OpenMP threads:               1
    Memory [MiB]:              2512
    Algorithm:                 Core
    Schwarz Cutoff:           1E-12
    Mask sparsity (%):      67.3238
    Fitting Condition:        1E-10

   => Auxiliary Basis Set <=

  Basis Set: (STO-3G AUX)
    Blend: DEF2-SVP-JKFIT
    Number of shells: 1494
    Number of basis function: 4500
    Number of Cartesian functions: 5322
    Spherical Harmonics?: true
    Max angular momentum: 4

  Cached 100.0% of DFT collocation blocks in 3.134 [GiB].

  Minimum eigenvalue in the overlap matrix is 1.2341599414E-01.
  Using Symmetric Orthogonalization.

  SCF Guess: Superposition of Atomic Densities via on-the-fly atomic UHF.

  ==> Iterations <==

                           Total Energy        Delta E     RMS |[F,P]|

   @DF-RKS iter SAD: -2236.40943450962095   -2.23641e+03   0.00000e+00 
   @DF-RKS iter   1: -2253.20291189108275   -1.67935e+01   3.13630e-03 DIIS
   @DF-RKS iter   2: -2250.13826449886801    3.06465e+00   8.55420e-03 DIIS
   @DF-RKS iter   3: -2253.66386866605353   -3.52560e+00   1.24577e-03 DIIS
   @DF-RKS iter   4: -2253.74471484156129   -8.08462e-02   5.20586e-04 DIIS
   @DF-RKS iter   5: -2253.75676872785652   -1.20539e-02   1.88340e-04 DIIS
   @DF-RKS iter   6: -2253.75838887937107   -1.62015e-03   8.16387e-05 DIIS
   @DF-RKS iter   7: -2253.75877461973823   -3.85740e-04   2.01490e-05 DIIS
   @DF-RKS iter   8: -2253.75878621196080   -1.15922e-05   1.41228e-05 DIIS
   @DF-RKS iter   9: -2253.75879748874149   -1.12768e-05   3.11823e-06 DIIS
   @DF-RKS iter  10: -2253.75879800059920   -5.11858e-07   1.10575e-06 DIIS
   @DF-RKS iter  11: -2253.75879806381181   -6.32126e-08   4.27986e-07 DIIS

  DF guess converged.

  ==> DirectJK: Integral-Direct J/K Matrices <==

    J tasked:                  Yes
    K tasked:                  Yes
    wK tasked:                  No
    Integrals threads:           1
    Schwarz Cutoff:          1E-12

   @RKS iter  12: -2253.74417696111232   -2.25374e+03   1.85849e-06 DIIS
   @RKS iter  13: -2253.74417700177173   -4.06594e-08   4.33574e-07 DIIS
  Energy and wave function converged.


  ==> Post-Iterations <==

    Orbital Energies [Eh]
    ---------------------

    Doubly Occupied:                                                      

       1A    -18.887664     2A    -18.883235     3A    -18.881190  
       4A    -14.236377     5A    -14.232083     6A    -14.229427  
       7A    -14.165978     8A    -14.165510     9A    -14.165244  
      10A    -10.133892    11A    -10.130640    12A    -10.130146  
      13A    -10.126244    14A    -10.126160    15A    -10.125750  
      16A    -10.048192    17A    -10.047256    18A    -10.047116  
      19A    -10.046710    20A    -10.046666    21A    -10.046580  
      22A    -10.044578    23A    -10.043440    24A    -10.043334  
      25A    -10.033555    26A    -10.032638    27A    -10.032584  
      28A    -10.032542    29A    -10.032329    30A    -10.031798  
      31A    -10.031699    32A    -10.031384    33A    -10.031082  
      34A    -10.030735    35A    -10.030173    36A    -10.029763  
      37A    -10.029315    38A    -10.027765    39A    -10.027394  
      40A    -10.026639    41A    -10.026230    42A    -10.024815  
      43A    -10.023714    44A    -10.022393    45A    -10.021555  
      46A    -10.020235    47A    -10.019603    48A    -10.019215  
      49A    -10.018777    50A    -10.016971    51A    -10.014314  
      52A     -9.996215    53A     -9.990182    54A     -9.988315  
      55A     -1.019990    56A     -1.013579    57A     -1.009587  
      58A     -1.007258    59A     -0.913512    60A     -0.909043  
      61A     -0.908215    62A     -0.894215    63A     -0.893940  
      64A     -0.834745    65A     -0.833415    66A     -0.832812  
      67A     -0.793721    68A     -0.793302    69A     -0.790474  
      70A     -0.765391    71A     -0.765106    72A     -0.764678  
      73A     -0.752745    74A     -0.752045    75A     -0.745852  
      76A     -0.725290    77A     -0.724404    78A     -0.723914  
      79A     -0.713035    80A     -0.712647    81A     -0.710406  
      82A     -0.679466    83A     -0.678867    84A     -0.672424  
      85A     -0.655787    86A     -0.655154    87A     -0.629571  
      88A     -0.613404    89A     -0.612401    90A     -0.604333  
      91A     -0.595326    92A     -0.594976    93A     -0.594137  
      94A     -0.582101    95A     -0.581645    96A     -0.571042  
      97A     -0.555471    98A     -0.554412    99A     -0.539439  
     100A     -0.535478   101A     -0.534380   102A     -0.518551  
     103A     -0.512569   104A     -0.496462   105A     -0.495240  
     106A     -0.481402   107A     -0.466903   108A     -0.466694  
     109A     -0.463871   110A     -0.451952   111A     -0.451770  
     112A     -0.451166   113A     -0.448465   114A     -0.447493  
     115A     -0.442750   116A     -0.442147   117A     -0.438688  
     118A     -0.434769   119A     -0.428242   120A     -0.427447  
     121A     -0.426045   122A     -0.425519   123A     -0.424198  
     124A     -0.423551   125A     -0.415486   126A     -0.406822  
     127A     -0.405841   128A     -0.399016   129A     -0.398142  
     130A     -0.397485   131A     -0.383981   132A     -0.381767  
     133A     -0.380761   134A     -0.360396   135A     -0.351622  
     136A     -0.350324   137A     -0.346149   138A     -0.345399  
     139A     -0.334078   140A     -0.331132   141A     -0.330010  
     142A     -0.329580   143A     -0.328671   144A     -0.326972  
     145A     -0.326460   146A     -0.325616   147A     -0.324695  
     148A     -0.321351   149A     -0.316295   150A     -0.313642  
     151A     -0.312551   152A     -0.302497   153A     -0.299792  
     154A     -0.298860   155A     -0.282212   156A     -0.276471  
     157A     -0.275171   158A     -0.268463   159A     -0.265466  
     160A     -0.257423   161A     -0.219024   162A     -0.218085  
     163A     -0.217715   164A     -0.213503   165A     -0.207079  
     166A     -0.205384   167A     -0.194657   168A     -0.194183  
     169A     -0.194006   170A     -0.189603   171A     -0.188973  
     172A     -0.188478   173A     -0.173444   174A     -0.171761  
     175A     -0.164727   176A     -0.159419   177A     -0.158971  
     178A     -0.146202   179A     -0.144207   180A     -0.131850  

    Virtual:                                                              

     181A     -0.010440   182A     -0.009584   183A     -0.000381  
     184A     -0.000193   185A      0.002723   186A      0.028898  
     187A      0.038421   188A      0.039571   189A      0.045207  
     190A      0.065428   191A      0.066098   192A      0.066883  
     193A      0.069956   194A      0.070876   195A      0.111398  
     196A      0.134722   197A      0.137235   198A      0.166218  
     199A      0.186861   200A      0.191510   201A      0.198105  
     202A      0.213474   203A      0.217707   204A      0.228459  
     205A      0.246363   206A      0.247290   207A      0.264161  
     208A      0.280885   209A      0.284918   210A      0.285717  
     211A      0.293035   212A      0.295400   213A      0.296015  
     214A      0.300391   215A      0.303132   216A      0.311105  
     217A      0.318891   218A      0.332434   219A      0.333586  
     220A      0.350048   221A      0.350766   222A      0.353411  
     223A      0.363371   224A      0.364575   225A      0.368204  
     226A      0.381841   227A      0.382073   228A      0.384738  
     229A      0.393175   230A      0.394180   231A      0.396423  
     232A      0.410877   233A      0.411661   234A      0.418662  
     235A      0.419519   236A      0.419809   237A      0.422658  
     238A      0.433044   239A      0.434983   240A      0.435160  
     241A      0.438585   242A      0.438895   243A      0.446150  
     244A      0.452047   245A      0.452922   246A      0.490341  
     247A      0.494123   248A      0.496050   249A      0.503377  
     250A      0.504092   251A      0.508073   252A      0.511460  
     253A      0.512291   254A      0.536486   255A      0.543541  
     256A      0.546026   257A      0.546482   258A      0.550455  
     259A      0.554519   260A      0.555199   261A      0.556437  
     262A      0.557016   263A      0.559522   264A      0.565088  
     265A      0.576828   266A      0.577687   267A      0.590852  
     268A      0.593742   269A      0.594627   270A      0.609850  
     271A      0.614841   272A      0.615253   273A      0.624845  
     274A      0.639100   275A      0.640231   276A      0.671637  
     277A      0.695825   278A      0.696924   279A      0.734267  
     280A      0.763008   281A      0.763679   282A      0.779276  
     283A      0.784187   284A      0.784802   285A      0.796139  
     286A      0.849046   287A      0.849833   288A      0.854649  
     289A      1.193898   290A      1.197718   291A      1.198783  
     292A      1.321320   293A      1.322088   294A      1.326562  

    Final Occupation by Irrep:
              A 
    DOCC [   180 ]

  @RKS Final Energy: -2253.74417700177173

   => Energetics <=

    Nuclear Repulsion Energy =           5083.7477456813248864
    One-Electron Energy =              -13180.4522615267997026
    Two-Electron Energy =                6101.9151675904086005
    DFT Exchange-Correlation Energy =    -258.9548287467051182
    Empirical Dispersion Energy =           0.0000000000000000
    VV10 Nonlocal Energy =                  0.0000000000000000
    Total Energy =                      -2253.7441770017712770

Computation Completed


Properties will be evaluated at   0.000000,   0.000000,   0.000000 [a0]

Properties computed using the SCF density matrix

  Nuclear Dipole Moment: [e a0]
     X:    -3.8703      Y:    -0.8072      Z:     0.6862

  Electronic Dipole Moment: [e a0]
     X:     2.7396      Y:     0.5987      Z:    -0.7920

  Dipole Moment: [e a0]
     X:    -1.1307      Y:    -0.2086      Z:    -0.1058     Total:     1.1546

  Dipole Moment: [D]
     X:    -2.8740      Y:    -0.5301      Z:    -0.2690     Total:     2.9348


*** tstop() called on Rubens-MacBook-Pro-2.local at Thu Jan 21 11:16:27 2021
Module time:
	user time   =     365.15 seconds =       6.09 minutes
	system time =      16.53 seconds =       0.28 minutes
	total time  =        387 seconds =       6.45 minutes
Total time:
	user time   =     365.15 seconds =       6.09 minutes
	system time =      16.53 seconds =       0.28 minutes
	total time  =        387 seconds =       6.45 minutes

    Psi4 stopped on: Thursday, 21 January 2021 11:16AM
    Psi4 wall time for execution: 0:06:26.85

*** Psi4 exiting successfully. Buy a developer a beer!
