85
 energy: -155.574233482501 gnorm: 1.077434857692 xtb: 6.3.3 (8d1dad5d26fa70d8c78cc3f4c837a3e1093e11cf)
N         0.11430000000000   -2.39180000000000   -0.03020000000000
C         0.15540000000000   -2.34210000000000    1.35260000000000
C         0.11910000000000   -1.25120000000000   -0.64520000000000
C         0.08160000000000   -0.10310000000000   -2.61100000000000
C         0.28200000000000    2.20780000000000    1.30510000000000
N         0.16220000000000   -0.07980000000000    0.01590000000000
N         0.07920000000000   -1.25910000000000   -2.01170000000000
N         0.22860000000000    2.26570000000000    0.00570000000000
N         0.19350000000000   -1.24440000000000    2.05170000000000
C         0.16330000000000   -3.66630000000000    2.05100000000000
N         0.26250000000000    1.03530000000000    2.04010000000000
C         0.20490000000000   -0.06630000000000    1.36060000000000
C         0.38500000000000    3.47120000000000    2.10090000000000
C         0.16940000000000    1.07870000000000   -0.66780000000000
N         0.12950000000000    1.11790000000000   -1.96160000000000
C         0.02650000000000   -0.03570000000000   -4.10530000000000
H         0.23130000000000   -4.84770000000000    0.23410000000000
C         0.15130000000000   -3.71760000000000    3.45110000000000
C         0.23980000000000   -6.14530000000000    3.38380000000000
C         0.20920000000000   -4.86290000000000    1.32240000000000
C         0.32010000000000   -7.43320000000000    4.13200000000000
H         0.32680000000000   -6.99990000000000    1.38430000000000
C         0.25190000000000   -6.09670000000000    1.98380000000000
C         0.19090000000000   -4.94960000000000    4.11280000000000
H         0.12160000000000   -2.80260000000000    4.03990000000000
H         0.19340000000000   -4.97070000000000    5.20200000000000
C         0.04830000000000   -1.21290000000000   -4.86420000000000
C        -0.02690000000000   -1.15360000000000   -6.26070000000000
H        -0.25970000000000    2.23530000000000   -6.62250000000000
C        -0.06820000000000    1.19970000000000   -4.76090000000000
H         0.11590000000000   -2.18470000000000   -4.37850000000000
H        -0.09810000000000    2.12770000000000   -4.19250000000000
C        -0.14820000000000    1.25990000000000   -6.15690000000000
C        -0.12310000000000    0.08230000000000   -6.91510000000000
C        -0.23680000000000    0.09950000000000   -8.40330000000000
H        -0.01900000000000   -2.07890000000000   -6.83570000000000
C         0.81050000000000    7.14160000000000    4.31370000000000
H         0.45670000000000    6.85270000000000    1.66370000000000
C         0.47710000000000    5.89660000000000    2.18550000000000
H         0.85000000000000    4.53900000000000    5.29780000000000
H         0.22800000000000    4.77010000000000    0.37150000000000
C         0.64360000000000    5.85530000000000    3.57640000000000
C         0.55020000000000    3.43060000000000    3.49210000000000
C         0.68420000000000    4.61510000000000    4.22670000000000
H         0.59600000000000    2.47780000000000    4.01670000000000
C         0.34770000000000    4.71220000000000    1.45180000000000
O         0.61300000000000   -7.44900000000000    5.32120000000000
N         0.07700000000000   -8.67100000000000    3.45230000000000
C        -0.48020000000000  -11.60740000000000    5.48200000000000
N        -0.07010000000000    1.33200000000000   -9.11290000000000
O        -0.49330000000000   -0.92420000000000   -9.02450000000000
C        -1.10210000000000   10.28180000000000   12.31010000000000
C         0.07520000000000    1.26710000000000  -10.21440000000000
H         0.46840000000000   11.28850000000000    6.87080000000000
C         0.22350000000000    1.25140000000000  -11.40660000000000
C         0.27370000000000   10.35350000000000    7.38230000000000
C        -2.45100000000000  -15.79040000000000    3.29090000000000
C        -0.10560000000000   -9.56370000000000    4.09180000000000
C         0.37210000000000    1.25050000000000  -12.69660000000000
C        -1.95170000000000  -14.73020000000000    3.84950000000000
C         0.67840000000000    2.47330000000000  -13.34530000000000
C        -0.43280000000000   10.33880000000000    9.90340000000000
C        -0.29380000000000  -10.54750000000000    4.75560000000000
H         0.22510000000000    0.34650000000000  -13.27500000000000
C         0.93490000000000    3.51570000000000  -13.88350000000000
H        -0.36410000000000   10.41910000000000   13.09170000000000
C         1.18980000000000    4.56400000000000  -14.41020000000000
H         1.39130000000000    6.62580000000000  -14.41240000000000
C        -1.49000000000000  -13.74890000000000    4.36450000000000
H        -3.51950000000000  -15.88020000000000    3.13390000000000
C         1.46440000000000    5.70120000000000  -14.97300000000000
C        -1.02790000000000  -12.76590000000000    4.87640000000000
H        -1.80680000000000  -16.60120000000000    2.97130000000000
O         1.05840000000000    8.18060000000000    3.71470000000000
N         0.70390000000000    7.16390000000000    5.74240000000000
H        -0.19440000000000  -11.62250000000000    6.52690000000000
C         0.56450000000000    8.15980000000000    6.21880000000000
C        -0.10980000000000   10.35140000000000    8.74690000000000
C         0.42010000000000    9.21560000000000    6.77440000000000
H        -2.13400000000000   10.10740000000000   12.59170000000000
C        -0.75460000000000   10.31460000000000   11.05970000000000
H         1.76950000000000    5.74410000000000  -16.01190000000000
H         0.10530000000000    6.44250000000000    6.12440000000000
H         0.54330000000000    1.99600000000000   -8.65750000000000
H        -0.55500000000000   -8.59450000000000    2.66500000000000
85
 energy: -155.835361412212 gnorm: 0.291906986596 xtb: 6.3.3 (8d1dad5d26fa70d8c78cc3f4c837a3e1093e11cf)
N         0.11465955827674   -2.39982209456590   -0.02228747048991
C         0.15490963947348   -2.34983602421889    1.34806127877374
C         0.11866313715365   -1.26224321489166   -0.65508634677181
C         0.08163137698094   -0.09550122419368   -2.61612067159414
C         0.28238973154312    2.20792505793587    1.31378004486427
N         0.16230052578222   -0.07984317114217    0.01597274009025
N         0.07934979870133   -1.25793968275449   -2.01016145592394
N         0.22865058960236    2.26431570540440    0.00675132281008
N         0.19344168406801   -1.24431160625437    2.04992718014749
C         0.16359437450557   -3.66319647600306    2.04923043416480
N         0.26331831238336    1.04580612371252    2.04307042893802
C         0.20514024238521   -0.06910911983078    1.37480100114739
C         0.38511892868518    3.46819160755384    2.09905491556697
C         0.16971908554519    1.09259354301223   -0.67289248852822
N         0.12872765687311    1.11567269133254   -1.97219871345301
C         0.02642565547079   -0.03576634276416   -4.10113671527092
H         0.23095040309784   -4.84475591919188    0.23896674702835
C         0.15162315000631   -3.71986890407301    3.45091852767559
C         0.24075379737013   -6.13841836637374    3.37968612244027
C         0.21001234845467   -4.86325840044873    1.32381189298229
C         0.32493853012237   -7.40315499660830    4.13054771286639
H         0.32621781210470   -6.99539629701983    1.38672953242962
C         0.25134539163276   -6.08913065742968    1.98111756234390
C         0.19069000308198   -4.94410793248430    4.10871707630112
H         0.12171642583624   -2.80553713754863    4.03483170902584
H         0.19333479191769   -4.97251780410288    5.19552314511415
C         0.04786464389811   -1.21174756704967   -4.86654667028124
C        -0.02663600728326   -1.15320126737031   -6.25361568255013
H        -0.25899262807788    2.23118813920730   -6.61991261977883
C        -0.06889960797848    1.19899812841746   -4.76206152633851
H         0.11560414715314   -2.17890832026170   -4.37874759393013
H        -0.09766706763674    2.12207265873562   -4.19238541184711
C        -0.14718885243872    1.25872744686689   -6.14885097497695
C        -0.12371612032296    0.08216209355328   -6.90782131965410
C        -0.23980113489256    0.08343128225654   -8.37435027033559
H        -0.01903643717092   -2.07252338309708   -6.83379756391547
C         0.81280604316288    7.12547857869784    4.28769040079110
H         0.45692552243253    6.84798343660615    1.66849814639331
C         0.47648498843526    5.89034405569385    2.18281323365432
H         0.84900480481425    4.53895541673662    5.29282163067359
H         0.22844833791768    4.76720630280578    0.37657126546831
C         0.64405100457384    5.84836013519387    3.57234804428044
C         0.55100865394533    3.43198150119161    3.49165443263895
C         0.68303284061185    4.60910504495369    4.22157096839840
H         0.59524879953190    2.48056077183752    4.01175186428810
C         0.34821291805748    4.71323336671251    1.45388698261721
O         0.61396700319476   -7.45082816554769    5.31483076731757
N         0.07826361267803   -8.59583108838028    3.41144865811499
C        -0.48652641491651  -11.64684932341545    5.50502658082813
N        -0.06872227429029    1.32664119688837   -9.02850457477126
O        -0.49448260316553   -0.91881996458112   -9.02380814868670
C        -1.10757839752390   10.28000493635676   12.33078993598780
C         0.07567428187633    1.26205576867193  -10.26198270253440
H         0.46402563844561   11.30417448150031    6.87656616187699
C         0.23518217159658    1.24802023341514  -11.43514252007170
C         0.26927041464067   10.39257452608752    7.40638116040871
C        -2.45910282914006  -15.80750857494373    3.28074036358835
C        -0.10287107519973   -9.60511074167697    4.12086809869430
C         0.37281527482708    1.24751882005694  -12.73790941936528
C        -1.96535638476774  -14.75919984655047    3.83348589435323
C         0.67196299058344    2.42734889307343  -13.33863303611380
C        -0.43043119758911   10.34228832097254    9.89049613613083
C        -0.29128006378104  -10.57161645636308    4.77016072270340
H         0.21065290711098    0.34564256595977  -13.29225593130922
C         0.93312525955865    3.50194942640121  -13.88096885015627
H        -0.36650591118237   10.41634342098591   13.09982308508046
C         1.19746904919194    4.59710173254709  -14.42670057865903
H         1.37726069536327    6.63586864403865  -14.42137715631631
C        -1.48673103257641  -13.73924853374929    4.37325746710006
H        -3.52245601304406  -15.88842262109820    3.13236802845723
C         1.46948991986502    5.72287886726213  -14.98327406079158
C        -1.00730926263979  -12.73411815657191    4.90934917207354
H        -1.81041011115558  -16.60700904411956    2.96569162957972
O         1.05986243571229    8.17600772443682    3.71898771776212
N         0.70012647424266    7.09130139147819    5.69644071761756
H        -0.19878311023360  -11.63463715383338    6.53807621983834
C         0.57194339819772    8.20574756443087    6.24102034475521
C        -0.09643520462959   10.36741362547885    8.70067509834667
C         0.42376501580145    9.24050083539153    6.78746051893760
H        -2.13619570175533   10.11023674339293   12.60000967136812
C        -0.76419634973322   10.31309800678901   11.09411187294676
H         1.78756310010401    5.75115134290190  -16.01100804673885
H         0.10641511390863    6.39894428367467    6.11303018337146
H         0.53937368970444    2.00776371890472   -8.61394646508447
H        -0.55261230906745   -8.56317457900504    2.63268243508545
85
 energy: -155.901249072611 gnorm: 0.142387218635 xtb: 6.3.3 (8d1dad5d26fa70d8c78cc3f4c837a3e1093e11cf)
N         0.11541829360090   -2.40900912653384   -0.01556289134800
C         0.15434595328361   -2.35656180497868    1.33995035154566
C         0.11853542426383   -1.27327333392970   -0.66637838571516
C         0.08158044417053   -0.08549182297509   -2.61865231112218
C         0.28305646790801    2.20452742961457    1.32334864455803
N         0.16271306974476   -0.07978424564582    0.01594172306168
N         0.07986414897891   -1.25508054037648   -2.00882198679870
N         0.22876715497658    2.26230408984378    0.00907320808533
N         0.19318754704956   -1.24507077863090    2.04682817454510
C         0.16425307965862   -3.65578841614534    2.04494933253724
N         0.26471443392857    1.05599195095811    2.04764646726613
C         0.20553013618042   -0.07303718802127    1.38970759730139
C         0.38544925722243    3.46094521345594    2.09470569684765
C         0.17019869954656    1.10772652831097   -0.67745295342694
N         0.12738270170749    1.11496944622191   -1.98347062075470
C         0.02612461963013   -0.03601044216293   -4.09210642095723
H         0.22989136069676   -4.83260515999298    0.24292363860295
C         0.15202161054401   -3.71411437618182    3.44507660482438
C         0.24479146020910   -6.12221750809641    3.37169179175236
C         0.21132875981460   -4.85564500088150    1.32296607925956
C         0.32581583715125   -7.37738861390902    4.12998249925960
H         0.32575512699013   -6.98254023616350    1.39028101613309
C         0.25227993660446   -6.07389993815425    1.97664615120176
C         0.19206400126115   -4.93127184479673    4.09857922958080
H         0.12144015965352   -2.80148904934246    4.02241397618941
H         0.19325405509015   -4.97348097856515    5.18140497538293
C         0.04765612593946   -1.20985117660484   -4.85903115368695
C        -0.02784705324200   -1.15141784966564   -6.23707637021534
H        -0.25822881730773    2.22180481534542   -6.61057488985876
C        -0.06954463219841    1.19599621886761   -4.75517515671052
H         0.11578620252746   -2.17056304004944   -4.36958041884048
H        -0.09623660540502    2.11250761763126   -4.18380232154446
C        -0.14752870594195    1.25491090441638   -6.13336188381970
C        -0.12855811641376    0.08027242739626   -6.89023209070172
C        -0.24121895415493    0.06854106520397   -8.35019426640823
H        -0.01916243961348   -2.06022925507069   -6.82708250836843
C         0.81136874108788    7.11188881813291    4.26580684392293
H         0.45719648220631    6.83627871836686    1.67646413612226
C         0.47687336650041    5.87521209095339    2.17674360227670
H         0.84742156506500    4.53570086658617    5.28009665146710
H         0.22802079347059    4.75463247069728    0.37934055025322
C         0.64666130972879    5.83322643977028    3.56203722949678
C         0.55167523464387    3.42744678025228    3.48539235818967
C         0.68261867448126    4.59765898172409    4.21064922351442
H         0.59294021569768    2.47795384263877    3.99930038696794
C         0.34826838647365    4.70547172156150    1.45186194819485
O         0.61978326905832   -7.44142646897955    5.30576802329443
N         0.06925377137266   -8.53691427079108    3.39580565792486
C        -0.47976473010571  -11.69253307770604    5.53347261373934
N        -0.05474987485005    1.30672750993147   -8.97299648009302
O        -0.49761723571126   -0.91812607029558   -9.01198816859642
C        -1.11323183693225   10.27321006790237   12.35468290310268
C         0.09249471993107    1.25170835044211  -10.25046550543897
H         0.44769559674542   11.34543495142288    6.88128372091699
C         0.27536437770050    1.24151743279791  -11.44165522987232
C         0.27406985208966   10.44054042865790    7.43147154386541
C        -2.46804169761261  -15.82462516536710    3.26299661737188
C        -0.09329978762430   -9.59584794780942    4.11712515851475
C         0.37470671110014    1.23804291263733  -12.78849419377420
C        -1.97085399846267  -14.77286317788897    3.82677406125224
C         0.66542017550894    2.39561164343871  -13.36592605455789
C        -0.43527511354856   10.35713349024225    9.88992935320361
C        -0.27516487032972  -10.58489298700930    4.77488159301026
H         0.14190854899197    0.34300400152822  -13.33486513258494
C         0.93823981955030    3.49333304898895  -13.89580676620947
H        -0.37218704564386   10.40349477757319   13.12290902447980
C         1.20372961434139    4.61147696473919  -14.43821369873698
H         1.30686887450912    6.66618930390008  -14.45444322588405
C        -1.48864301215994  -13.74719838665085    4.38789911843316
H        -3.53184668275908  -15.91329527649131    3.13178231605791
C         1.47581487416571    5.74866542694109  -14.99469464053565
C        -1.00334362916997  -12.74181367513852    4.95377471083030
H        -1.82011719286416  -16.62190057617459    2.94558029699522
O         1.06559173715894    8.16280384402147    3.71436624019870
N         0.68668595735619    7.04918496406935    5.65423244809071
H        -0.21184880653169  -11.65405210527447    6.57231375236716
C         0.58624823619365    8.19973799832719    6.23315272842414
C        -0.08838769082905   10.40316950761528    8.68821852445881
C         0.44079372083733    9.25531615831895    6.78908693722044
H        -2.14387237034940   10.12330141845556   12.62335639061583
C        -0.76883793650980   10.31446570469889   11.10919945724092
H         1.86843754548007    5.77016319619432  -15.99879924578797
H         0.11165406841870    6.35375144367229    6.10064248923818
H         0.52569946441972    2.02006646072312   -8.56221649992983
H        -0.54470293634701   -8.52830853273835    2.59800570309071
85
 energy: -155.932794273008 gnorm: 0.056126456717 xtb: 6.3.3 (8d1dad5d26fa70d8c78cc3f4c837a3e1093e11cf)
N         0.11646346831864   -2.41404963014338   -0.01254818155554
C         0.15393282622264   -2.35902295268225    1.32905396382084
C         0.11890503540763   -1.28025017556585   -0.67734824374041
C         0.08175901881139   -0.07511760472505   -2.61580993301084
C         0.28347765587035    2.19650421299842    1.33072187662553
N         0.16339011436205   -0.07966475933980    0.01595250553583
N         0.08093690897952   -1.25248134410717   -2.00627132299896
N         0.22854934728668    2.25903275205713    0.00993310132871
N         0.19266241786273   -1.24417999434637    2.04347771429258
C         0.16501811496040   -3.64413885340787    2.03826849981911
N         0.26591848164842    1.06127216052257    2.05055504426648
C         0.20589955588773   -0.07874229394484    1.40122952980552
C         0.38569703733688    3.44947474774609    2.08787860908840
C         0.17060807654785    1.12063766730598   -0.67852072733943
N         0.12588141550758    1.11493067531304   -1.98962476459266
C         0.02551232268276   -0.03646442487712   -4.07873019554023
H         0.22854918457982   -4.81230039754052    0.24009116236498
C         0.15294304821231   -3.69845929179138    3.43653789527189
C         0.25080456337551   -6.10155078067516    3.36281143188842
C         0.21282050600481   -4.84222519102775    1.31736378863075
C         0.32773445894769   -7.35620999045436    4.12954869877863
H         0.32786545746984   -6.96578729751938    1.38945152303218
C         0.25575646010676   -6.05578634987894    1.96962446365462
C         0.19492309571412   -4.91193830316776    4.08748852131788
H         0.12028930351697   -2.78424581337923    4.00589719115118
H         0.19440055370254   -4.96824795246344    5.16712512113424
C         0.04697823109622   -1.21065418456104   -4.84153819964170
C        -0.03201279237014   -1.15199549647001   -6.21482714211081
H        -0.26049258492507    2.21387116496320   -6.59569422327784
C        -0.07062693448575    1.19367516936869   -4.74104536893812
H         0.11747246816751   -2.16544148315840   -4.34705183667353
H        -0.09381489670267    2.10428604121002   -4.16493036319873
C        -0.15203434794298    1.25127338777000   -6.11444760370033
C        -0.13845505561179    0.07672862531039   -6.86825406128030
C        -0.24182303126480    0.05573311203341   -8.33238771139013
H        -0.02081633958603   -2.05094725856374   -6.81521631784634
C         0.81192498764964    7.10016023754319    4.24838781730650
H         0.45801131026978    6.82139924222426    1.67945656278609
C         0.47811019477435    5.85599846639417    2.16571563116794
H         0.84804551482650    4.52638844027799    5.26611047561081
H         0.22569216496005    4.73216883638943    0.37292621363130
C         0.65089335454386    5.81479134772444    3.54850503495724
C         0.55217550022948    3.41573262917096    3.47646350445358
C         0.68452998687519    4.58220515888485    4.19845328377067
H         0.58978976832830    2.46520870877304    3.98310256474742
C         0.34813787749699    4.69049813117544    1.44266876600589
O         0.62934784655990   -7.42326035469644    5.30017490366334
N         0.05177889849603   -8.49892288911204    3.39761095589764
C        -0.46441159345105  -11.71766123940731    5.55904064558193
N        -0.02236066421162    1.28139893880344   -8.94589224718775
O        -0.50072701067003   -0.92565558566889   -8.99460260618162
C        -1.12133461543368   10.27554788234055   12.37911043837560
C         0.15125024106783    1.23871717647571  -10.25401061747194
H         0.43108497783329   11.38257579419404    6.87314296733345
C         0.33110898182303    1.22816261542621  -11.44354646622428
C         0.29034884431432   10.47643269847981    7.44042335289186
C        -2.47862278275910  -15.84701900668871    3.25424755067716
C        -0.09467147285491   -9.59950151687854    4.12130849548763
C         0.35830554242892    1.22894774966986  -12.82616918796122
C        -1.97929568805664  -14.79259797740212    3.82429982790941
C         0.65590571402100    2.38010903326251  -13.40558838211005
C        -0.44014057376090   10.37475898459710    9.90490131242163
C        -0.25506645789627  -10.59118949374918    4.77859939660520
H         0.02902915608790    0.34695304878168  -13.36785086628450
C         0.95238318084074    3.49208275439877  -13.91876721222565
H        -0.37911056596568   10.37697591067604   13.15195066939786
C         1.20962794715378    4.62306539727651  -14.45221397229914
H         1.17967776564994    6.69992081706577  -14.51326990269730
C        -1.49350332074163  -13.77038638580962    4.39952857570504
H        -3.54265455819330  -15.94362307986093    3.12722748879418
C         1.48179725519425    5.76991695198372  -15.00515815190137
C        -1.00795887329250  -12.76907012941485    4.99118106527176
H        -1.83224528250990  -16.63586355909883    2.91059723202445
O         1.07378753520381    8.14767333695109    3.70033210092239
N         0.66555684562850    7.03322553922935    5.62335461880847
H        -0.21922938217889  -11.65660852422000    6.60757766683286
C         0.58671350097856    8.20831203752052    6.23172850091906
C        -0.08748808706986   10.43753839194607    8.69681887433311
C         0.46477725041433    9.26973284821254    6.77940366005672
H        -2.15297828931243   10.13868313089370   12.65308072439310
C        -0.77545724645130   10.32119871138304   11.12827461168010
H         2.00939707256904    5.79236462582772  -15.96410241592121
H         0.12467947423001    6.31693382530435    6.09112027207416
H         0.50370142239591    2.03216820705006   -8.51140079904867
H        -0.52878679373408   -8.49970575710807    2.56838262004768
85
 energy: -155.948597548372 gnorm: 0.047573152564 xtb: 6.3.3 (8d1dad5d26fa70d8c78cc3f4c837a3e1093e11cf)
N         0.11779343521353   -2.41466990235349   -0.01384637365564
C         0.15338173386724   -2.35818139764317    1.31861140274065
C         0.11999289626563   -1.28179434093188   -0.68539328600149
C         0.08261147587336   -0.06638302510914   -2.60944823990632
C         0.28299567425176    2.18695345519229    1.33542844943211
N         0.16414526393036   -0.07956237872169    0.01612450702997
N         0.08291866925189   -1.25075351939059   -2.00434544870447
N         0.22746958192066    2.25640781472724    0.00998729198259
N         0.19145718922681   -1.24306907405820    2.04141775016313
C         0.16621852783481   -3.63303324174621    2.03077483200034
N         0.26616792016659    1.06086212793364    2.05193688554851
C         0.20578499732661   -0.08500212846337    1.40707111431813
C         0.38625547528125    3.43743591516304    2.08208645110185
C         0.17066121320788    1.12861875526520   -0.67565658892552
N         0.12454932115694    1.11599005568304   -1.98982465338362
C         0.02360429108030   -0.03596428458373   -4.06574766639748
H         0.22768960888212   -4.78882127096761    0.23123423928649
C         0.15477600328024   -3.67888999314997    3.42739719617445
C         0.25859606338556   -6.08186641424191    3.35395385174187
C         0.21558727344904   -4.82789173181660    1.30801109422401
C         0.33168152242712   -7.34010185217019    4.12813641523903
H         0.33452315030971   -6.94937784795760    1.38273760756747
C         0.26245073304598   -6.03965357602155    1.96082200401787
C         0.19983599607675   -4.89175377420683    4.07765486840556
H         0.11872990972627   -2.75934787505468    3.98762888005988
H         0.19817707863545   -4.95629723558512    5.15569102482434
C         0.04418761595056   -1.21303987316220   -4.81966665372144
C        -0.03986493865253   -1.15423741344876   -6.19218467470513
H        -0.26826276470945    2.21062586775903   -6.57804851295488
C        -0.07420084889101    1.19376721891334   -4.72394618103821
H         0.11997859759814   -2.16273575756149   -4.31651021486293
H        -0.09139783612772    2.09946038062389   -4.14030491799363
C        -0.16052811867942    1.24971242128994   -6.09624366711881
C        -0.14900039605686    0.07346270893030   -6.84592650891391
C        -0.23560285578545    0.04528602877257   -8.31912826063147
H        -0.02615800386804   -2.04767015812085   -6.79883295630864
C         0.81488231407018    7.09028217233123    4.23569887510278
H         0.46058560397353    6.80560436350646    1.67553514249846
C         0.48143443916806    5.83735446877083    2.15353394952190
H         0.85302458683252    4.51185428910830    5.25531276826442
H         0.22229440671937    4.70453844841099    0.36109128123968
C         0.65747031114064    5.79673805886752    3.53601481938641
C         0.55381447309371    3.40013837689726    3.46870635527262
C         0.68996461199231    4.56591695566924    4.18887594270867
H         0.58684166417188    2.44543772296896    3.96719735386186
C         0.34850590444450    4.67301225307698    1.43060326244150
O         0.64204567490039   -7.39878932867402    5.29689170518043
N         0.03212662924710   -8.47917810865442    3.40932921334224
C        -0.46670985061071  -11.73785295559084    5.57960880114435
N         0.02511778135122    1.25440810449642   -8.93784082011111
O        -0.50824868348559   -0.93864456612107   -8.97044154402904
C        -1.12768503898805   10.27362856174099   12.39682432515305
C         0.22599230193065    1.22448704574187  -10.26242454733051
H         0.42841963964799   11.41417606486649    6.88369385946829
C         0.37523228460532    1.20947843738233  -11.45772479878362
C         0.28360095822888   10.50601864714366    7.44706359787856
C        -2.48636706305018  -15.86302521395158    3.24661098149262
C        -0.11057019860964   -9.60716343038412    4.12590620624243
C         0.32867467327161    1.23407896196389  -12.86013239210338
C        -1.98830578774604  -14.81039919575968    3.82755257075806
C         0.64485088167248    2.37557628288673  -13.44890082914727
C        -0.43488796369503   10.39665719716179    9.92147218712866
C        -0.25058978260667  -10.60412461058092    4.78678156477770
H        -0.07521788448801    0.37386437436401  -13.39519853874217
C         0.95819142339428    3.49394337141022  -13.94816781023424
H        -0.38786996077442   10.34901726438104   13.17761573846431
C         1.21602227853934    4.63004360252647  -14.46899325422955
H         1.07546272029788    6.71324379775347  -14.58799128761647
C        -1.48811625978273  -13.79825939449278    4.41366556564554
H        -3.55156181117734  -15.97591584062912    3.12842561697874
C         1.48896052768951    5.78210709229022  -15.01448387237283
C        -1.01179531500752  -12.80027268452802    5.02495941470148
H        -1.84431446037077  -16.64602836910012    2.87617004374092
O         1.08368972734836    8.13167720809474    3.67942697134803
N         0.64400887561174    7.03520501069870    5.60386495385777
H        -0.21748125647297  -11.67197479759217    6.62755593040352
C         0.56826860264380    8.21913221211721    6.23454412588811
C        -0.08052461578873   10.47481891397176    8.71136684944828
C         0.47135300229905    9.29180788789798    6.77396706754480
H        -2.16188507652230   10.16168638128753   12.68055667410576
C        -0.78182638316423   10.32939058317081   11.14344965615541
H         2.12987853543897    5.82547275834776  -15.91284873930113
H         0.14716689558691    6.28724411222158    6.07696941386239
H         0.49025299718650    2.03136408032520   -8.46965580397112
H        -0.50478279001050   -8.47186125157738    2.54771039232871
85
 energy: -155.957636073420 gnorm: 0.043604392482 xtb: 6.3.3 (8d1dad5d26fa70d8c78cc3f4c837a3e1093e11cf)
N         0.11957310711488   -2.41359740263752   -0.01762193258023
C         0.15281175156960   -2.35726850193151    1.30890935097331
C         0.12169560371049   -1.28022176342304   -0.69142292485832
C         0.08341211116768   -0.05801263657552   -2.60278344056145
C         0.28196047607697    2.17803060382344    1.34013425779179
N         0.16479440540685   -0.07941085734753    0.01634253692350
N         0.08566449400129   -1.24895238282913   -2.00409332402219
N         0.22561007512097    2.25535008968650    0.01118919895041
N         0.18938094052695   -1.24343416923550    2.04018395660585
C         0.16802384930300   -3.62535609764274    2.02251723086947
N         0.26543708407467    1.05751275556270    2.05323794622719
C         0.20481156259731   -0.09126513320928    1.40945998092188
C         0.38751372725102    3.42670037515766    2.07968006036948