78
 energy: -137.667567771217 gnorm: 0.506988106469 xtb: 6.3.3 (8d1dad5d26fa70d8c78cc3f4c837a3e1093e11cf)
N         0.47711279802800   -1.14190208969900   -0.72275653654300
C         0.47711279802800   -1.14190208969900    0.61108346345700
N         0.47711279802800    1.21398249865100   -0.62823492644000
C         0.43751181900800    0.12392142519500   -2.77188361937600
H         0.03057879346900   -1.89181688876000   -5.51073229784500
C         0.46336435136500    1.10918396523700    0.70046769552200
C         0.50509662558200   -2.45280148684000    1.29509916014400
H         0.89723351717000   -3.61835963192500   -0.49433094559900
C         0.47422265965200    0.06073659348600   -1.29541449707100
N         0.45289785133700   -0.04445216867400    1.36840298374600
C         0.56187199453100   -4.97714804132900    2.60424271137700
C         0.45090504732100    2.36457558838600    1.48069364049000
H        -0.33755018418500    7.09914322231000    2.19279527838400
C         0.22703109575200   -1.02856846005500   -3.55593836979700
C         0.23155070990600    0.39275591493400   -7.08775420434400
C         0.60577895977300    1.34261545962500   -3.45756489665800
C        -1.15076975032400   -0.64536316761000  -10.22629697305000
C         0.16456041959000   -0.96759360963600   -4.95542615544900
C         0.30859584710700    0.26011938741600   -5.60738396199700
C         0.54928579441600    1.41184232571400   -4.85406106394900
C        -0.90304907422700   -0.56847336877200   -9.05411078910200
H         0.68708418963600    2.37134308770600   -5.35033393807200
C         0.17246674116200    3.56522698403100    3.59834072461500
C         0.18740143303300    2.37287009257600    2.86346285338100
H         0.10844122182200   -1.99895201849800   -3.07404734684800
C         0.71068094728700    3.60860331595300    0.87008007824100
H        -0.01149419890100    1.43950598327500    3.38865298196900
H         0.94256561356700    3.65310281211500   -0.19390498869200
C         0.70127074521600    4.80552735373200    1.59832281523500
H         0.24485753446800   -3.82767531087800    4.42040516312600
C         0.39737038087400    6.02899460732400    3.78908198267800
C         0.41572097554100    4.78794421991800    2.96599076300000
H        -0.03083641186600    3.53441068936900    4.66783299689100
C         0.73160180868900   -3.64614301309400    0.58197608565400
C         0.32288598008300   -2.56530937901100    2.68831897859100
H         0.16365913684100   -1.66967062711500    3.28856247018000
C         0.35268981688900   -3.80733375345000    3.33951132927200
C         0.76622711422400   -4.88928603557800    1.22461170522300
H         0.95543575864000   -5.78891667981000    0.64073960204200
C         0.60948023482200   -6.32513503817100    3.23595915733000
N        -0.16879974597200   -6.50452262753100    4.36439231582800
O         1.29064968630300   -7.20842227647000    2.72481023936500
C        -0.42224733450200   -8.59782573402800    5.80303808259900
C        -2.44576717989100   12.14567488317000    4.16657979065200
C        -0.30439793079000   -7.61133209143100    5.12883750267000
H         0.90313899677300   -9.40749307451200   12.07719220339600
H         0.77732023748500    2.26211651317900   -2.90422259666800
H         0.93837161080300    5.72796826459000    1.08064634028000
C        -0.54449804750700   -9.67477921982000    6.51755627849500
H         0.02935342071100   -5.44371452214800  -14.43269146098700
C         0.00071347955100   -9.69733142131800    7.82548104776800
C        -3.45633280861600   12.77627358779400    4.00674474361300
C         0.46711330931600   -9.72620054240700    8.93147255083000
C         0.93869112207300   -9.75724266231600   10.03519828654100
C         0.06277943028200   -3.56402375190300  -13.56098185604800
O         0.87247013390400    1.26645819349700   -7.65293466054800
C        -0.40923988385800   -2.67320284765400  -12.90923844202400
O         0.68473403835500    5.97347354540100    4.97456719377300
N        -0.01889637817000    7.18445066265400    3.14092012801400
H        -0.77292680648200   -5.74667549022700    4.65258864800700
C        -0.10300972408800    8.44088935528500    3.63132772299100
N        -0.63402076159900   -0.47868884767200   -7.73474494214600
C        -0.17843947356600    9.55958133018800    4.06040123163400
C        -0.87588236694300   -1.77921066398600  -12.25742888211900
C        -1.42251205718900   -0.71636894109100  -11.49590057806000
C        -0.25151848978500   10.76683145740900    4.53196675975600
H        -1.19545564610600   -1.10054458645700   -7.16828762535000
C        -1.44018486312800   11.51190705359900    4.32990600397600
H         0.56726979607900   11.19516081328500    5.09773345710300
C         1.45361979286000   -9.79225842165100   11.22632139080900
H        -2.01527917455900    0.04898295468700  -11.98243322608100
C         0.57791979646100   -4.52456433554900  -14.26583024870700
H         1.56800658306000   -4.42282490182300  -14.69501096688300
H         2.44338377900400  -10.20335590975300   11.38776020695700
C        -4.54892324108900   13.45652486187300    3.83725017902900
H        -4.59917792945100   14.24589965533800    3.09649013357200
H        -5.42745076402600   13.24670845791800    4.43624876333300
H        -1.00778241400000  -10.56486810004500    6.10940174489100
78
 energy: -137.762768623342 gnorm: 0.137625265927 xtb: 6.3.3 (8d1dad5d26fa70d8c78cc3f4c837a3e1093e11cf)
N         0.47629226010534   -1.13740389458838   -0.72098112848219
C         0.47803296273344   -1.14887944391972    0.61378182622464
N         0.47839817631905    1.21294958677069   -0.62723121687198
C         0.43701700246990    0.12406006715422   -2.77975787862907
H         0.03073467446102   -1.88492624069601   -5.50282428224981
C         0.46310851551605    1.11383293855689    0.70310924627011
C         0.50530022913090   -2.46038228966604    1.29896902126269
H         0.89507225929273   -3.61178409200683   -0.48664718107778
C         0.47112614888300    0.06231310122367   -1.30115575944293
N         0.45238470664143   -0.04530118561374    1.36519116375780
C         0.55660061966563   -4.97060171918628    2.60195820870892
C         0.45152771334381    2.37112727486120    1.48451039722368
H        -0.33947425643124    7.08238279666389    2.18455563660508
C         0.22974050813213   -1.02721692628680   -3.55511668999219
C         0.23043513037064    0.39963008361145   -7.08415377315695
C         0.60437897822505    1.34011040038325   -3.45861621085571
C        -1.14830434023108   -0.63666437461451  -10.20033354452631
C         0.16375391226410   -0.96490306178786   -4.94327093876923
C         0.30336554566575    0.25820664427028   -5.60010523317108
C         0.54751375624156    1.40658576053561   -4.84494728275269
C        -0.89346664108686   -0.55632583754210   -9.02427308866728
H         0.68498492372584    2.35916056379506   -5.34660833050732
C         0.17342543459408    3.55995721322127    3.58935012425580
C         0.18918730314530    2.37538654285281    2.86216829269622
H         0.11036314168548   -1.98987006784451   -3.07070991188824
C         0.71173673777540    3.60651431363636    0.87120947307009
H        -0.00900870324890    1.44336320506781    3.37940226939167
H         0.94002089838554    3.64567078604203   -0.18788089326584
C         0.69759552989449    4.79405407818460    1.59409662386427
H         0.24442937079590   -3.82446149771089    4.41052978936484
C         0.39184580690060    6.02200767190994    3.79385607933033
C         0.41197785313533    4.78359247404144    2.95995074604139
H        -0.02838366716318    3.53690975387129    4.65550988545786
C         0.73168836443331   -3.64614308462649    0.58454894665936
C         0.32571844320074   -2.56553865855944    2.68678671504129
H         0.16550527524718   -1.67160952544240    3.27909963861047
C         0.35168044270384   -3.79846761362996    3.33116094558705
C         0.76433975842371   -4.87894563656227    1.22426225293779
H         0.95271432966705   -5.77998754541073    0.64942481781599
C         0.60920517882466   -6.32572556586205    3.22745717496078
N        -0.16668107116086   -6.48738533586092    4.35151366773545
O         1.28514618546771   -7.21083717106295    2.73635053821257
C        -0.41840787794953   -8.58148539764880    5.77900167864172
C        -2.42734106907831   12.13959539467212    4.16848870130918
C        -0.29554153106879   -7.58902573804903    5.10465669660715
H         0.91049284924710   -9.41326627675696   12.09609817059937
H         0.77667440749790    2.25283541915279   -2.90170900985216
H         0.93713599639914    5.71887291761697    1.08196180374333
C        -0.54271921031632   -9.70084984404485    6.52767150949764
H         0.03918816388506   -5.45859373300191  -14.44289447957400
C        -0.03422147826939   -9.71455760705706    7.76675578823021
C        -3.49151669124257   12.79703083047505    4.00012212115002
C         0.45767698921167   -9.72720451015177    8.91425772057829
C         0.95505577380052   -9.75656112847610   10.07350669062155
C         0.07918116172132   -3.59582818572836  -13.58224693789787
O         0.86719358678701    1.25864537097674   -7.66170379597392
C        -0.41973589146276   -2.65891755271906  -12.90024677645583
O         0.68592741613772    5.98612979710412    4.97232668033537
N        -0.01569072996817    7.16414460705232    3.13551678468403
H        -0.76884354213113   -5.73027328247146    4.64401690207165
C        -0.09365748023886    8.40827022340094    3.62387607800932
N        -0.62756733064303   -0.47713361568377   -7.71339107373399
C        -0.16433951921466    9.53516423651850    4.05053712197875
C        -0.91257576212720   -1.72261596030313  -12.23734053613474
C        -1.42444588949171   -0.71239374524599  -11.52303939339527
C        -0.25184652821770   10.78861668083495    4.54734728956695
H        -1.18941598996182   -1.10074525436237   -7.15042213336356
C        -1.37545789251140   11.49180189437159    4.34688374926477
H         0.56316520159403   11.20985941984531    5.11271084997582
C         1.46648808543367   -9.79264910807651   11.25595167368463
H        -2.01988667616148    0.04823373585135  -12.00185877897900
C         0.59114570606008   -4.54861386992301  -14.28291558567459
H         1.57414692290236   -4.43762797283418  -14.70734914468605
H         2.45187501726878  -10.19919915874766   11.40602971680416
C        -4.57600467637433   13.47358501371454    3.83344242509528
H        -4.61979988604952   14.24961546359444    3.08857377330923
H        -5.44116720131519   13.26417480357785    4.43893708070877
H        -1.01543773724108  -10.58043506722650    6.12189307245117
78
 energy: -137.777160446316 gnorm: 0.037120448787 xtb: 6.3.3 (8d1dad5d26fa70d8c78cc3f4c837a3e1093e11cf)
N         0.47634350178511   -1.13820089752754   -0.71868375457280
C         0.47623126345667   -1.14850132653555    0.61516567424836
N         0.48080876485739    1.21001246428164   -0.62711726513037
C         0.43562292255355    0.12268959368402   -2.77790680695759
H         0.02794454420694   -1.87955661744859   -5.48629302582882
C         0.46326025432626    1.11585477914435    0.70284979151604
C         0.50572029603153   -2.45742360946115    1.29892422189634
H         0.89170264744460   -3.59101067075237   -0.48475427858419
C         0.46996931788097    0.06013937506962   -1.30244493047425
N         0.44960382724661   -0.04324880168540    1.36236062843286
C         0.55087822272873   -4.95693706521565    2.59578637159704
C         0.45216040054358    2.37036687493142    1.48317088871766
H        -0.34423159275535    7.05150272069930    2.16898891387072
C         0.23103547324677   -1.02774606102556   -3.54405510598171
C         0.22902192547941    0.40440265770426   -7.07251158453383
C         0.60111395358384    1.33742157146014   -3.44885684635707
C        -1.14681830750160   -0.62412507718449  -10.17626207719974
C         0.16070151766922   -0.96347178722255   -4.92490559706159
C         0.29773650671606    0.25632258725519   -5.58537994870821
C         0.54278972818644    1.40111384219221   -4.82871506508994
C        -0.88756186304876   -0.53951703213355   -9.00044739840059
H         0.68102703048339    2.34477468306247   -5.33817393119971
C         0.17288224756107    3.54971348381630    3.57681241093199
C         0.19100056077969    2.36944182544586    2.85591158874564
H         0.11622595107848   -1.98226921585020   -3.05235255046598
C         0.71120946400321    3.59699726413171    0.86594461246573
H        -0.00347095629666    1.43584262641724    3.36246662625618
H         0.93750294259120    3.62540424856486   -0.18943725036491
C         0.69139094888177    4.77865805570784    1.58558752873110
H         0.24045058534224   -3.81313053575490    4.39726559847597
C         0.38733544145142    6.01054191191663    3.79175338607931
C         0.40634751701742    4.77342511109122    2.95042328647412
H        -0.02541431475030    3.53686436501609    4.63960614908023
C         0.73023521335937   -3.63611311604965    0.58196136626456
C         0.32788942493585   -2.55534168448577    2.68150337653258
H         0.17043855306821   -1.65941524251922    3.26324658038570
C         0.34871632439889   -3.78321209604643    3.32048359118591
C         0.75985187458942   -4.86208972950232    1.22056611815240
H         0.94760811714276   -5.76589979453196    0.65754105294967
C         0.60815094308221   -6.31771339574806    3.21641469983867
N        -0.16796686850872   -6.46368189985028    4.33712889958143
O         1.27795492695941   -7.21129252311085    2.74399465166509
C        -0.40217033810351   -8.57167754808439    5.75066738072619
C        -2.41666744195838   12.14061948238316    4.16835636573914
C        -0.29071849817245   -7.57569770804055    5.07773902421414
H         0.91350788189456   -9.43629513130607   12.11860603809999
H         0.77680939555617    2.24085701220051   -2.88450136971479
H         0.93382642639201    5.70339902092127    1.07778013004932
C        -0.51938822965483   -9.71743513725522    6.52447667049335
H         0.05476622025211   -5.47621679129974  -14.44889461258639
C        -0.04975610816940   -9.73534315733432    7.75240560677693
C        -3.49250841728754   12.79930146958903    3.99823718662668
C         0.45142214416285   -9.73225418757758    8.90908507527315
C         0.95625758901325   -9.75179889298209   10.07690011831065
C         0.08031285199865   -3.60100648716948  -13.58123632474283
O         0.86021555339497    1.25166512192971   -7.66674303146642
C        -0.42650648389338   -2.65346300279225  -12.90009753901682
O         0.69040689125870    5.99908599957451    4.96586288881727
N        -0.01298368427038    7.14039615118192    3.12022025125766
H        -0.76066238746621   -5.69904364601114    4.63292581084178
C        -0.07657881007361    8.38515408741512    3.61088448278487
N        -0.62486772517892   -0.47733055053079   -7.68603747398516
C        -0.13846829355763    9.51594360133405    4.03103113199719
C        -0.93004004916284   -1.70154626929291  -12.24478501370241
C        -1.40793393818511   -0.70217996229433  -11.53764859858256
C        -0.25987840753880   10.78941510753159    4.56657634273838
H        -1.17869877684838   -1.10602191605473   -7.11929594865835
C        -1.35012458831835   11.49562368848579    4.35520150000326
H         0.55140220222865   11.19930514503422    5.15136384379853
C         1.47199392933650   -9.79039808586798   11.26839483323965
H        -2.02520657019583    0.05210951663116  -12.00644961764340
C         0.59717409827138   -4.56015377421418  -14.28819686258422
H         1.57505800267678   -4.45204508060892  -14.72581450704212
H         2.46474047354547  -10.17792580294016   11.42368477057556
C        -4.58670230550383   13.47968878649556    3.83087474335260
H        -4.65403662511483   14.22842965743572    3.05808949182323
H        -5.44240806145102   13.30650803794248    4.46347426424016
H        -1.04423106662809  -10.57820732795514    6.12888892075879
78
 energy: -137.780457230310 gnorm: 0.017717722169 xtb: 6.3.3 (8d1dad5d26fa70d8c78cc3f4c837a3e1093e11cf)
N         0.47602558145574   -1.13765900602213   -0.71759834597012
C         0.47546370906775   -1.14634750616658    0.61453971295128
N         0.48390573569182    1.20847284783666   -0.62614744186430
C         0.43406096994780    0.12271626625777   -2.76968785650949
H         0.02371484996300   -1.87894079543129   -5.46756846898685
C         0.46308060451573    1.11425630554162    0.70210760052777
C         0.50451670088683   -2.45064631077249    1.29502450742845
H         0.88699058772461   -3.56553477307787   -0.49241425986443
C         0.47028956963389    0.05971190594649   -1.30023641000328
N         0.44622547125073   -0.04306634937321    1.36101094125832
C         0.54855640980619   -4.94020579378250    2.58596589967375
C         0.45129617100341    2.36394934390144    1.47934619726107
H        -0.34565606724059    7.02288658448886    2.15038411108611
C         0.23035377672511   -1.02982852091069   -3.52768040170611
C         0.22450665332538    0.40806517482354   -7.05294927987228
C         0.59817060230111    1.33889195446822   -3.43250494206986
C        -1.12985248279202   -0.61145187838073  -10.15420951829443
C         0.15718659416750   -0.96451989437026   -4.90562034480528
C         0.29367718653141    0.25561596719972   -5.56537110501386
C         0.53873117105852    1.40026965650853   -4.80956718605966
C        -0.88042051866682   -0.52399415140801   -8.97724166547992
H         0.67589964487147    2.33816736651060   -5.32623896472942
C         0.17222022580333    3.53631345551162    3.56598273548444
C         0.19105314286459    2.35663905203883    2.84951007556303
H         0.12249494630007   -1.97870889627189   -3.02653579571935
C         0.70873467178664    3.58400274046145    0.85513691425605
H         0.00252595815003    1.41867196869110    3.34679097816509
H         0.93394658174197    3.60015184294019   -0.19929019490916
C         0.68825491648421    4.76350194663583    1.57287209400196
H         0.23643201566875   -3.79861431061526    4.38711218174474
C         0.39608332344403    5.99651704417611    3.77873055650050
C         0.40539953412111    4.75861156906919    2.93785719066370
H        -0.02264599511241    3.53254455668517    4.62780951875605
C         0.72704753856886   -3.62299885896796    0.57237239772110
C         0.32796192749273   -2.54090737923607    2.67533130403846
H         0.17632498462546   -1.63960477417864    3.24768895389819
C         0.34668656756537   -3.76706121996741    3.31162009857322
C         0.75662058635250   -4.84561387953371    1.21120523254540
H         0.94233859677351   -5.75294907829310    0.65652939529873
C         0.60466233271804   -6.30386728309669    3.20253594334680
N        -0.17447583231728   -6.43845737452964    4.32074011831445
O         1.26969085651874   -7.20511431630200    2.74235957144908
C        -0.39994970022828   -8.55067109468804    5.73240769605223
C        -2.41236959210044   12.15248083940570    4.17173623450449
C        -0.28833721139033   -7.55759296554779    5.05644446218624
H         0.91592176896171   -9.45297779287061   12.13357308644303
H         0.77541808983518    2.23446254959657   -2.85872482633243
H         0.93033404178396    5.68794702463115    1.06608493903469
C        -0.54413606385894   -9.69934950170100    6.52954723920509
H         0.07419540178388   -5.49695315728074  -14.44094061204964
C        -0.04745223383173   -9.73234994005977    7.74900261809284
C        -3.48562429444555   12.82066889431566    4.00529519765080
C         0.45178053839271   -9.74479391010455    8.91187040773800
C         0.95017345358161   -9.78769599100061   10.08441798808162
C         0.07322500709707   -3.59392979731685  -13.60821961604079
O         0.85202217106975    1.24817664874075   -7.65850612982347
C        -0.43089238937361   -2.65225027250985  -12.91261403611171
O         0.70065571323804    6.00085181489192    4.95106108794383
N        -0.00247585514020    7.11863494497666    3.09827737226176
H        -0.75278259853433   -5.66366867950482    4.62068805151839
C        -0.06353778591998    8.35987656279214    3.60414010028811
N        -0.63025263866012   -0.47528210035154   -7.65695122812907
C        -0.13588237560034    9.48640633942794    4.03103372604498
C        -0.93433454357315   -1.70293408808743  -12.24398446878709
C        -1.42745026766621   -0.71631300425371  -11.52411491924278
C        -0.25417046142721   10.78415912360929    4.55089719459352
H        -1.17139498389877   -1.11364271248780   -7.08773630980803
C        -1.34588489986503   11.49631746346203    4.35524034960311
H         0.53391321967757   11.15505530116243    5.20350195327127
C         1.47442973061738   -9.79488740833871   11.27700671253148
H        -1.99637054155788    0.07747301951570  -11.99525051775127
C         0.59890321779530   -4.56581765930099  -14.29788348934537
H         1.57534760632465   -4.46702591473501  -14.74332334605611
H         2.48097535604554  -10.14726190780089   11.44179362031016
C        -4.59119834650280   13.48719113019332    3.82975649350758
H        -4.69308375859170   14.19712821182018    3.01864360491894
H        -5.43552112303968   13.35053197479567    4.49112629107316
H        -1.02151736671988  -10.57277585597723    6.10458759394945
78
 energy: -137.779195253357 gnorm: 0.036889102444 xtb: 6.3.3 (8d1dad5d26fa70d8c78cc3f4c837a3e1093e11cf)
N         0.47553706242546   -1.13618969845583   -0.71758259541488
C         0.47415808634171   -1.14300346111663    0.61274293885223
N         0.48812327527350    1.20807265208322   -0.62542137964144
C         0.43305421220056    0.12375808957575   -2.76052461701035
H         0.02055703609034   -1.88178163194048   -5.44771889713738
C         0.46274246199499    1.11218390258133    0.70085204341184
C         0.50267742570071   -2.44185511792342    1.28973546985192
H         0.87982713140165   -3.53783964401619   -0.50330501626727
C         0.47140319794066    0.06049505113215   -1.29767482341661
N         0.44155394081330   -0.04285804467498    1.35981058641091
C         0.54538451111788   -4.91967619661201    2.57660064606116
C         0.45034480679456    2.35648509313369    1.47448016994294
H        -0.35241637763051    6.99257413123962    2.12438672471919
C         0.23024559513432   -1.03257550809004   -3.51011167741129
C         0.21723235546784    0.40386295614009   -7.03386625507828
C         0.59487675874935    1.34231485958216   -3.41611944545420
C        -1.13049552256342   -0.59748039590316  -10.12769489272564
C         0.15509114068807   -0.96758911980183   -4.88666320942830
C         0.29057742548349    0.25366240192340   -5.54543726698952
C         0.53394355618749    1.40067494518128   -4.79197065857035
C        -0.88888557427293   -0.53428427624908   -8.94780407985478
H         0.66895074844118    2.33374294966198   -5.31629595317048
C         0.17484503272852    3.52322149144005    3.55582796203670
C         0.19200303201220    2.34265555965468    2.84335565480764
H         0.12892603139719   -1.97553833716219   -2.99711567304303
C         0.70599325273250    3.57050189755382    0.84143987963490
H         0.00884663885365    1.39910547643965    3.33083662386913
H         0.92837336257247    3.57223419467424   -0.21334373750496
C         0.68776917218952    4.74940039232175    1.55732854175913
H         0.23384080226108   -3.77943897624852    4.37960404897633
C         0.40524464043867    5.98494262759167    3.75844591414905
C         0.40881383444364    4.74344402372478    2.92320756956973
H        -0.01805148975379    3.52893717523398    4.61736292328738
C         0.72235909485276   -3.60869580551127    0.56052468471656
C         0.32776355958664   -2.52291846312966    2.66916602210032
H         0.18243958288665   -1.61424102070026    3.23079598348639
C         0.34475587910564   -3.74773811789005    3.30474184802870
C         0.75156297026078   -4.82866604477978    1.20104010748536
H         0.93553882884637   -5.74052001532310    0.65455442233143
C         0.59998448833561   -6.28331167441188    3.19299121918379
N        -0.18039075566946   -6.40894831384806    4.31174685486862
O         1.25663038689197   -7.19299536961702    2.73956546604423
C        -0.38692756555589   -8.54019685161158    5.70216648656165
C        -2.41309555679165   12.14244163631887    4.15072865736311
C        -0.28442211058273   -7.54101132961795    5.03469290037613
H         0.91105624652928   -9.48351881990786   12.15322614570973
H         0.77184216978046    2.23020667972671   -2.83143699884432
H         0.92763728698548    5.67333453839358    1.04980540613684
C        -0.51409874987810   -9.69948387150187    6.50873363183461
H         0.07970350471440   -5.51144084107710  -14.43809899819349
C        -0.03024862675530   -9.74602742275626    7.74011875302135
C        -3.47433271185899   12.83353344507963    3.99832050286406
C         0.44837884473418   -9.77246623430137    8.91441236594270
C         0.95694334253942   -9.75107705060656   10.08450243485011
C         0.07614019395870   -3.60331245593529  -13.59573376077000
O         0.83593728624615    1.23996980148163   -7.65281256319835
C        -0.42049466067281   -2.65197469518342  -12.90750448726785
O         0.70961061437713    6.00546687697224    4.92978267839397
N         0.00032571030662    7.09859333889778    3.06804917938292
H        -0.74415732454931   -5.62569664177347    4.61763785639796
C        -0.08143352742681    8.33359846852387    3.59366714625305
N        -0.63950845405061   -0.48692802672864   -7.62438998755125
C        -0.11856318115642    9.45898938975803    4.02854412061546
C        -0.91627765232733   -1.68051269856721  -12.25849765428645
C        -1.34637897277419   -0.65888642765261  -11.53010235612808
C        -0.29347417607908   10.72736270661859    4.64665208205401
H        -1.16283425840998   -1.13187365944464   -7.04577313378718
C        -1.34421267879317   11.49483878324542    4.37402053163306
H         0.55396056963180   11.13628526755068    5.18129028505675
C         1.46558118940397   -9.80322747059835   11.28342645527047
H        -2.02977194603930    0.07180543200021  -11.96332853366471
C         0.59058672159227   -4.56976033129773  -14.30293391468520
H         1.56337429237812   -4.48007469156731  -14.76260904270992
H         2.48747777124807  -10.11800326942943   11.45091461736976
C        -4.58728953073668   13.48984766178464    3.82262244784555
H        -4.71881440534250   14.17781101341912    2.99565415572517
H        -5.42103508935842   13.38767617522929    4.50743266474769
H        -1.05216007898269  -10.54735977448155    6.09391236819072
78
 energy: -137.781702127447 gnorm: 0.015665630119 xtb: 6.3.3 (8d1dad5d26fa70d8c78cc3f4c837a3e1093e11cf)
N         0.47549709841223   -1.13633358386045   -0.71818354253076
C         0.47315562967037   -1.14284986215016    0.61213207509377
N         0.48908649706590    1.20840461262061   -0.62551687816777
C         0.43391804965339    0.12410230190808   -2.75969270021845
H         0.02107778351676   -1.88351709315983   -5.44707677327048
C         0.46253925139030    1.11122282478198    0.70055198661459
C         0.50223671727451   -2.44134523284322    1.28905730577742
H         0.87697385305831   -3.53815465548203   -0.50550344476026
C         0.47230681489432    0.06068256735802   -1.29712312157290
N         0.44036727493489   -0.04337157995945    1.36026484068804
C         0.54469880840655   -4.91776924933098    2.57652888103171
C         0.45028279848335    2.35537605996048    1.47359155475275
H        -0.35190195560558    6.99713422065218    2.12585174663621
C         0.23083453380747   -1.03307553140168   -3.50933619896560
C         0.21422641043237    0.40297454432398   -7.03053754499569
C         0.59461254918981    1.34377468466022   -3.41520153089747
C        -1.11520401417715   -0.60537701593659  -10.12921670558414
C         0.15488121620856   -0.96840749838938   -4.88648814346132
C         0.28930462058251    0.25419662150304   -5.54327645762256
C         0.53280328462251    1.40270328534112   -4.79157759615700
C        -0.88443756308049   -0.54106078713933   -8.94687850417678
H         0.66684220435662    2.33717392607278   -5.31513154060713
C         0.17823077235825    3.52220657280266    3.55636882590746
C         0.19305542599702    2.34127965561877    2.84340486089348
H         0.12864042563675   -1.97623423237025   -2.99567949382788
C         0.70553024057541    3.56962550316276    0.83892838224845
H         0.00878998151630    1.39743044705107    3.33132041154632
H         0.92564660793578    3.57065666753664   -0.21694711313498
C         0.68959144869512    4.74940773659454    1.55458289648280
H         0.23607321432386   -3.77686869982245    4.38166126650245
C         0.40778958551119    5.98182398447612    3.75496271225422
C         0.41290089997722    4.74111617318426    2.92106326934597
H        -0.01524873825265    3.52743836045905    4.61852781875889
C         0.72114163758902   -3.60885346653698    0.55925646508745
C         0.32819063958649   -2.52150954243449    2.66943532383659
H         0.18251555690298   -1.61195276309977    3.23071256175377
C         0.34540614391146   -3.74646549679494    3.30620026886464
C         0.75012471195006   -4.82944581016007    1.20016376003727
H         0.93375067762827   -5.74132322320521    0.65219318129918
C         0.59752891042731   -6.27918429079803    3.19537915286005
N        -0.18122760574528   -6.40617626171461    4.31647777385959
O         1.25177069031552   -7.18871361280372    2.73700824794253
C        -0.38671892379450   -8.54066790919943    5.70138852444556
C        -2.40793218267048   12.15592077911446    4.18672479433737
C        -0.28591093625294   -7.53777909391535    5.03834038149666
H         0.89870086936339   -9.49207846260147   12.14529277496039
H         0.76977708891337    2.23232952998613   -2.83004441923964
H         0.92871106461080    5.67327126880750    1.04598866934867